# vtk DataFile Version 3.0
vtk output
ASCII
DATASET POLYDATA
FIELD FieldData 2
Radius 1 853 float
1.78485 1.59625 1.42552 1.37801 1.43754 1.53056 1.56438 1.54708 1.56934 
1.6755 1.85732 1.99975 1.94698 1.75871 1.7102 1.81819 1.87362 1.75229 
1.57261 1.28581 0.995318 0.730222 0.56924 0.435853 0.407464 0.603158 0.777384 
1.0103 1.40728 1.75878 1.97205 2.01901 1.9305 1.80422 1.62561 1.40068 
1.17449 0.929873 0.709424 0.595062 0.561263 0.546085 0.584858 0.664904 0.72787 
0.774381 0.78828 0.802853 0.814045 0.828727 0.853054 0.894544 0.946331 1.03241 
1.18203 1.38003 1.53807 1.63311 1.73741 1.82108 2.3309 2.18812 2.24303 
2.03189 2.09782 2.0599 2.32769 2.23742 2.39351 2.29593 2.51181 2.44856 
2.49411 2.4389 2.76673 2.70857 2.93118 2.88942 2.92427 2.74406 2.90066 
3.03975 3.20281 3.02239 2.87486 2.73815 2.39067 2.0268 1.5726 1.42796 
1.12583 0.959058 0.847605 0.872091 0.931211 1.10276 1.37058 1.58435 1.92422 
2.37637 2.82208 3.075 3.25282 3.1873 3.06016 2.97228 2.77814 2.57885 
2.28693 2.06649 1.76537 1.5435 1.30418 1.20339 1.11562 1.17372 1.16224 
1.1899 1.10638 1.20708 1.22503 1.28647 1.24884 1.2549 1.2236 1.23881 
1.22631 1.21196 1.17046 1.25028 1.1831 1.22231 1.43257 1.59312 1.82309 
1.87192 2.0051 2.00687 2.2159 2.21216 1.50159 1.45016 1.77853 1.54691 
1.65362 2.02037 1.61435 1.82039 2.20047 1.64641 2.50397 2.38726 1.63492 
1.66635 1.21298 1.89137 1.70551 1.94745 1.71993 1.33793 1.27241 2.73569 
2.55709 2.51818 3.54872 3.84268 1.60573 2.32944 2.50309 0.932607 1.91652 
1.74069 2.88855 3.23632 3.54097 3.76849 2.94218 1.45727 2.90696 3.77396 
3.92449 2.06037 2.34299 3.43542 1.63566 2.66131 2.3687 4.03604 3.81641 
3.44488 3.30139 2.1943 2.16077 2.20736 1.90654 2.55731 3.81686 3.21079 
3.14262 4.06578 2.3602 4.33193 3.89422 2.4126 2.23921 3.84602 4.26843 
3.65911 4.22432 3.00055 3.13915 3.53916 3.54178 3.81654 3.96516 2.83165 
2.94113 3.56339 3.61666 3.1043 2.92691 4.17065 2.59126 3.98317 4.04124 
1.91239 2.21939 2.69389 4.21617 2.50712 3.07753 2.71695 1.8323 2.22761 
1.96177 3.11992 2.50838 2.45449 1.82122 2.47297 1.86505 1.66476 1.46539 
1.26242 2.7773 2.32063 2.20932 1.70364 2.22838 3.6035 3.52737 2.37041 
2.98977 3.50309 3.55758 1.75714 3.01141 3.44762 3.3615 3.55996 3.92472 
1.7414 1.58543 1.13785 2.73895 2.21077 2.56831 1.5168 1.40084 1.27533 
1.3785 1.78806 2.21744 1.92539 1.23593 0.862886 2.28453 1.67511 2.39763 
2.93395 3.7101 3.36934 2.10058 2.3507 2.55371 2.791 2.63688 2.65312 
2.41787 2.92354 2.74817 1.42971 2.02393 1.91601 1.68477 3.11565 3.20706 
3.33863 3.73789 3.26571 3.31861 3.19044 3.07028 2.98619 1.99564 2.49262 
2.40931 2.57441 2.79521 3.01539 2.37767 2.83933 2.2736 1.86313 2.40432 
2.34606 1.95499 3.07471 2.62895 2.75616 2.12052 2.13523 1.75594 2.40898 
2.42162 2.50367 2.39406 2.00069 2.4392 1.61193 2.0649 3.15088 3.11092 
2.76213 2.32062 2.37242 2.06505 2.55135 2.52111 2.39402 2.89405 3.83608 
3.93406 3.70065 2.8746 3.40729 2.79361 3.41064 3.38422 3.30503 2.40479 
2.85828 2.14845 2.45938 2.75171 2.65089 3.08086 1.43405 1.72605 1.71011 
2.4107 1.92921 1.96278 2.86408 2.80297 3.02201 3.06139 2.70782 3.12173 
3.40623 3.49135 3.63047 3.77016 1.94537 2.46303 3.84761 3.48683 1.31613 
0.915997 1.05929 0.82217 1.05148 1.33193 1.16163 0.910716 0.655383 0.73685 
0.500902 1.03864 0.638235 0.997607 0.896351 0.763683 1.12382 1.09244 1.21448 
1.26934 0.621576 0.393938 1.03655 0.826328 1.04476 1.24559 1.50514 0.69391 
0.888608 0.71161 0.502699 0.80769 1.02158 0.694571 0.910065 1.03101 1.24152 
1.06383 2.34672 2.41768 2.28617 1.61598 1.44315 1.64463 1.08358 1.1995 
0.86993 1.13972 1.26225 1.49813 1.4494 1.71407 1.55561 2.00289 1.82381 
1.85797 1.21128 1.74374 1.23016 1.53923 1.36782 1.50338 2.45163 2.45221 
1.45116 1.42129 1.67489 1.39634 2.52248 3.47624 3.8141 1.87448 2.59969 
2.63303 3.11162 2.1094 2.63358 2.37147 3.2288 3.55634 3.58476 2.19321 
1.5082 1.29413 1.64349 1.61549 1.50513 1.36222 1.30758 1.19617 1.42498 
1.36759 1.23588 1.05455 1.72229 4.05566 4.07284 4.13809 1.22657 1.39522 
2.39666 2.19444 2.6054 2.16448 1.90345 2.04714 1.78969 1.88911 1.74874 
1.97295 1.595 1.88629 2.53732 2.14553 2.86891 2.70277 1.97945 3.14596 
2.70266 2.01601 2.63846 1.60947 1.72621 2.97768 1.73637 1.62613 1.69356 
3.6225 3.73402 3.48989 1.27207 1.42986 1.46954 1.56535 1.50923 3.03772 
3.10371 2.88556 3.07689 3.48605 1.47443 1.26728 0.803558 1.13705 3.18975 
2.94769 2.15956 2.46711 2.02422 1.54872 2.81565 2.75809 2.92683 1.95535 
2.3941 1.98874 1.56152 1.90569 1.57265 1.6188 2.02374 1.94777 1.55388 
2.56276 2.54253 2.30916 1.49286 1.92724 1.89374 2.33056 2.3528 2.34084 
2.48379 2.18214 2.80658 2.6875 2.65206 0.971714 0.942038 1.23565 1.73986 
1.39442 1.49054 1.08014 0.642023 0.803786 1.37178 1.27166 1.58838 2.01911 
1.45503 1.13752 1.94282 1.81119 2.3828 2.51885 0.565642 1.77663 2.63558 
2.62148 0.890852 1.77798 1.39578 2.73443 1.78983 1.69768 1.38657 1.78985 
2.16125 1.72061 1.82181 1.49375 2.07775 1.91939 2.20142 1.98923 2.0102 
2.07481 2.2771 1.71301 1.18367 1.52474 1.52268 1.81909 2.13675 2.23382 
2.14708 2.10496 2.01386 1.80716 2.39481 2.06485 1.79351 2.02491 2.32442 
2.23009 2.05663 2.10637 1.90445 2.29068 2.24036 1.83963 2.01806 1.84934 
1.68063 1.75695 1.94707 1.82364 1.58758 1.47473 1.69969 2.10992 2.12155 
2.05795 2.3053 2.55327 2.57691 2.14017 1.67969 1.89215 2.09738 2.02156 
1.81702 1.79119 1.93103 1.97271 1.85752 0.55102 0.888379 0.872546 1.84197 
0.888671 0.554416 0.95785 1.15919 1.60318 1.44404 0.897891 1.13844 2.32097 
2.38004 0.963238 0.922518 1.17324 1.47792 2.24991 2.11434 0.625674 1.46316 
1.23743 1.02201 0.996489 0.69999 1.08899 1.0413 1.26486 1.65031 0.751059 
1.05316 1.45956 1.4047 1.2557 1.04505 1.06108 1.93998 0.796408 1.04664 
1.04951 1.05378 0.808174 1.67934 1.45158 1.42511 0.781331 1.91602 2.2369 
1.96261 1.53842 1.71439 1.69219 1.83281 1.52605 1.69208 1.42365 1.3216 
1.27378 1.36834 1.32532 1.22816 1.13815 1.08082 1.06282 1.21186 1.33036 
0.981976 0.919722 1.05762 1.10007 1.48888 1.373 1.35789 1.05059 1.08951 
1.33282 0.820409 1.0469 1.02775 1.2513 1.12337 1.04126 1.21387 1.22189 
1.03204 1.04324 0.870796 1.41945 0.838974 2.0789 2.17329 1.68103 2.58713 
2.36902 2.29673 2.42663 2.70461 2.21348 2.26044 2.90553 2.03209 3.48537 
3.53222 3.84369 4.00282 4.19183 2.77137 2.92631 1.66613 2.0455 2.90933 
3.52113 3.35904 3.41403 3.84823 3.86765 3.52982 3.94721 3.26787 1.91733 
3.32436 2.37765 3.62164 4.27007 4.33306 4.28274 2.44532 2.11264 1.68616 
3.11856 3.24356 1.91007 1.95591 2.90629 2.7189 2.93414 3.34472 3.90161 
4.12179 3.36778 3.46011 4.11587 4.24243 3.52607 3.2859 3.73921 3.4282 
2.48138 3.12554 3.23689 2.59463 2.30816 1.93025 1.94151 2.19559 2.87626 
2.24341 2.09775 2.78843 2.45474 3.00309 3.83948 4.14049 3.36986 3.77109 
3.18107 2.73667 4.02072 4.182 2.4891 2.05329 4.10748 4.10847 4.02144 
4.06617 3.93009 3.6899 2.41886 2.33894 2.43479 2.4177 4.32957 4.34031 
4.26027 4.26052 3.74231 3.9205 4.10793 4.19075 3.93801 3.54995 3.33881 
2.87047 3.72137 3.66554 3.71032 3.92672 3.90578 4.18357 4.07319 4.11647 
2.67009 2.52337 3.0612 2.70397 3.98889 3.98895 2.78882 
Rho 1 853 float
-0.0390998 -0.0182189 0.0096156 0.0111361 -0.0283223 -0.0876765 -0.10184 -0.0715189 -0.0288717 
0.0591137 0.230705 0.388077 0.396381 0.254587 0.0895251 0.0572371 0.226369 0.508774 
0.609138 0.424239 0.0653989 -0.253829 -0.334157 -0.272682 -0.396263 -0.738916 -0.817464 
-0.58286 -0.2862 -0.0833268 0.0450341 0.0506226 -0.185831 -0.444189 -0.376582 -0.204371 
-0.264632 -0.364167 -0.29888 -0.24092 -0.280416 -0.317064 -0.335712 -0.340691 -0.321254 
-0.285346 -0.291638 -0.394365 -0.535381 -0.658316 -0.733124 -0.779058 -0.840939 -0.816435 
-0.7278 -0.618713 -0.531145 -0.41251 -0.245128 -0.0983271 -0.111423 -0.0619242 -0.06274 
-0.0162839 0.00602395 0.00979773 -0.000655488 -0.0438008 -0.0593318 -0.0680575 -0.0373371 -0.0303275 
0.0160837 0.11059 0.209559 0.325281 0.369786 0.318035 0.224836 0.14323 0.0666476 
0.0912987 0.1745 0.331118 0.481489 0.490562 0.435943 0.181179 -0.0884063 -0.221273 
-0.307772 -0.26425 -0.199257 -0.293423 -0.560876 -0.743851 -0.652767 -0.53277 -0.384245 
-0.219152 -0.0817735 0.043413 0.0930844 -0.0125889 -0.25971 -0.429708 -0.341548 -0.18994 
-0.142456 -0.229859 -0.335851 -0.279837 -0.19062 -0.157011 -0.218583 -0.255068 -0.295111 
-0.331753 -0.349086 -0.350208 -0.324586 -0.311829 -0.286537 -0.340881 -0.448848 -0.548535 
-0.620265 -0.65518 -0.705719 -0.702731 -0.781138 -0.795931 -0.710262 -0.640871 -0.557771 
-0.540607 -0.459679 -0.357316 -0.276 -0.171375 -0.638971 -0.588546 -0.524027 -0.507905 
-0.473291 -0.452106 -0.406985 -0.408743 -0.374695 -0.345135 -0.178792 -0.270198 -0.34881 
-0.363285 -0.155423 -0.0358267 -0.116446 -0.381579 -0.273251 -0.168763 -0.410884 0.0232638 
0.0060293 -0.0853368 0.226893 0.137535 -0.3382 -0.16261 -0.474682 -0.220137 -0.067249 
-0.371812 0.00858258 0.0837983 -0.115979 -0.197006 -0.00544481 -0.112445 -0.0978257 0.236263 
0.139949 -0.371332 -0.237818 -0.296311 -0.161147 0.0519994 -0.305918 0.101965 0.0840853 
0.173117 -0.141232 0.0124741 -0.337056 -0.175439 -0.12001 -0.00358398 -0.0140582 -0.0355328 
-0.0543231 -0.0624234 -0.0162972 0.0555128 0.0962394 -0.0638171 -0.167401 0.11899 0.112877 
0.113972 0.102041 0.245423 -0.10185 -0.14492 0.241185 0.0375506 0.0174359 -0.256086 
-0.293804 0.0425331 0.0558304 -0.000876457 -0.0172631 0.0994576 0.0580505 0.143169 0.0654095 
-0.164265 -0.255797 -0.231973 -0.0198411 0.131777 0.134941 0.200532 -0.288974 -0.239934 
-0.304924 0.238518 0.308454 0.431366 0.381856 0.0721563 0.111698 -0.34966 -0.361672 
-0.360419 0.0958451 0.0676768 0.117762 0.15909 0.186096 0.17432 0.230857 0.0500396 
0.064936 0.0819809 0.0877664 0.0522657 -0.369797 -0.244687 -0.335293 0.137232 0.132147 
0.318632 0.143805 0.252389 -0.470069 -0.485844 -0.454512 -0.127083 -0.155829 -0.13505 
-0.0263338 0.0313676 0.324186 0.465627 -0.164829 -0.107565 0.581808 0.591436 0.530094 
0.421244 0.187992 0.30062 0.557232 0.57398 0.493481 0.503255 -0.292698 -0.234088 
-0.283065 0.378321 0.348674 0.550223 -0.27197 -0.23465 -0.317815 0.0802001 0.213927 
[...]
CELL_DATA 3168
FIELD FieldData 1
Jacobian 1 3168 float
1.39694 1.0334 1.00103 1.06936 0.880193 1.20299 0.934461 1.12334 1.13586 
0.835616 1.23564 1.089 1.32008 0.923083 1.18473 0.914041 1.05107 1.28484 
1.04864 1.14214 1.49446 1.00001 1.23256 1.12962 1.07729 1.28873 1.01116 
1.3637 1.20098 1.46141 1.13975 1.36102 0.78946 1.21674 0.825276 1.15592 
0.796417 1.25691 0.822244 1.19783 0.97331 1.09582 0.871385 0.930272 1.15689 
1.1143 1.04421 1.05103 0.945676 1.26076 0.692554 1.1919 0.81402 1.23244 
0.751538 1.26263 0.735649 1.22298 0.959905 1.3293 0.880372 1.23047 0.883095 
1.23409 1.48538 1.47264 2.03365 1.07662 1.9569 1.27543 1.72671 1.21088 
0.834031 1.32398 0.867747 1.13683 0.822697 1.13469 0.81731 1.19068 1.59186 
1.35261 1.30579 1.44002 1.21648 1.26735 1.26101 1.31424 0.815908 1.22516 
0.91202 1.18025 0.946442 1.25326 0.946821 1.18144 1.32388 0.660125 1.49952 
0.72467 1.4041 0.668917 1.46094 0.728322 2.27998 1.13869 2.12428 0.991319 
2.48859 1.03974 2.36731 1.02801 0.94984 1.18244 0.944777 1.22151 0.805928 
1.53218 0.810673 1.26788 1.46513 1.18124 1.89244 1.21 1.53416 1.23911 
1.86252 1.3065 0.50365 1.2154 0.686222 1.07398 0.785595 0.85557 0.628264 
1.02566 0.68242 1.50158 0.767173 1.34879 0.868998 1.16756 0.846917 1.37285 
0.993312 1.18678 1.67449 1.09549 0.842391 1.51127 1.05013 1.43483 0.977739 
1.13206 0.991839 1.18229 1.02787 1.09633 1.0002 1.06701 1.27075 1.44644 
1.32488 1.43033 1.3035 1.40596 1.35602 1.41443 1.33862 1.42077 1.28335 
1.47157 1.06745 1.45262 1.13063 1.48185 1.44223 1.64478 1.85017 1.59619 
1.86777 1.52964 1.72083 1.71393 1.50437 1.8363 1.74488 1.20221 1.34533 
1.37773 1.63266 1.54004 1.50116 1.41263 1.49383 2.05071 1.392 1.47215 
1.42209 1.71033 1.96204 0.516594 1.07636 0.650628 1.59837 0.570525 1.66235 
0.426949 1.85121 1.31037 1.55817 1.85255 1.60659 1.71227 1.68416 1.57723 
1.28256 1.20827 1.45736 1.35074 1.07191 1.21715 1.25492 1.12769 0.903738 
1.04771 1.06626 0.977901 0.928459 0.884431 0.925927 0.971758 1.4037 1.64919 
1.39938 1.15085 1.28745 1.81139 1.46 1.46445 0.991594 1.30834 1.21903 
1.3659 1.26685 1.31912 1.21162 1.40586 1.56757 0.838699 1.37274 0.955738 
1.51502 1.09694 1.4357 0.964043 0.871454 1.20766 0.750772 1.03546 0.741566 
1.02198 0.755505 1.06095 1.6519 1.15407 1.54861 1.22579 1.4335 1.19229 
1.56757 1.22656 0.738326 1.08354 0.895729 1.26871 0.76599 1.07524 0.810796 
1.16173 0.689752 1.05966 0.937058 1.17106 0.776135 1.1739 0.810787 1.15506 
0.889586 1.12572 0.899217 1.05154 0.884783 1.15592 0.835821 1.0932 1.31178 
0.872473 1.37041 0.798859 1.2966 0.773794 1.2862 0.78922 1.23094 1.38191 
1.18714 1.58109 1.6149 1.86858 1.39746 1.53961 1.61708 1.63709 1.58719 
1.52355 1.53514 2.09366 1.4304 1.95428 0.86891 0.877322 1.22769 1.22595 
1.44502 1.36608 1.17502 1.15485 1.00374 1.29847 1.96818 2.05644 1.12207 
1.51239 1.21317 1.55843 1.44629 1.81787 1.35166 1.89008 1.30319 1.80086 
1.33658 1.89563 1.48086 1.47691 1.79991 1.40541 1.86157 1.4466 1.59321 
1.43911 1.79509 1.97368 1.91744 1.22517 1.58382 1.23269 1.66953 1.23765 
1.0468 1.21754 1.71914 1.59003 1.18171 1.39122 1.43167 1.49818 1.3099 
1.23961 1.309 1.12615 1.43527 1.26067 1.32556 1.14328 1.81927 1.16995 
2.00531 1.63334 1.30608 1.25722 1.90721 1.36095 2.09728 1.34391 1.94733 
1.36197 2.02054 1.26838 2.07298 1.40309 0.844377 1.04097 0.9852 1.12532 
0.690615 1.00319 0.812506 1.05023 1.1005 1.32265 1.41556 1.22532 1.36208 
1.31956 1.14615 1.22364 1.38839 1.23746 1.83405 1.26597 1.44873 1.25276 
1.51867 1.17765 1.64134 1.38149 1.43598 1.44237 1.23314 1.33878 1.36231 
1.3623 0.890216 1.03527 1.03225 1.05529 0.788561 0.964322 0.876662 1.01507 
1.17356 0.759745 1.27386 0.815121 1.06814 0.763749 1.25296 0.85263 1.20617 
0.779898 1.19722 0.824778 1.13119 0.753258 1.15003 0.805078 1.21711 1.33269 
1.56597 1.20893 1.31087 1.32913 1.53326 1.39741 1.41729 1.01784 0.931544 
0.854892 1.0773 0.896431 1.03128 0.79714 1.18041 0.802023 1.12811 0.793168 
1.25558 0.84416 1.19263 0.769792 1.05084 1.1504 1.14878 1.10478 1.33204 
1.21643 1.14051 1.11872 1.65422 1.14368 1.32386 1.24721 1.50255 1.17713 
1.5034 1.11009 1.15081 1.0864 1.04952 1.00254 1.09145 1.07204 1.07695 
1.06993 1.79898 1.17755 1.84921 1.35078 1.67828 1.27778 1.85421 1.29144 
1.72694 1.10127 1.69596 0.980368 1.4829 0.907285 1.7076 1.00898 1.37405 
1.80549 1.23137 1.6525 1.15108 1.16398 1.41645 1.55199 0.857004 1.18124 
1.13958 1.17035 0.793368 1.23117 0.982777 1.22498 1.45843 1.20966 1.91966 
1.21391 1.68103 1.26542 1.74254 1.32703 0.941665 1.30885 1.03707 1.2801 
1.17929 1.24145 1.13296 1.3254 0.62214 1.43469 0.923101 1.22727 0.738354 
1.38562 0.7244 1.38336 1.06386 0.795973 1.12821 0.792904 1.07413 0.854954 
1.06311 0.834787 1.02063 1.22715 0.668285 1.34931 0.745104 1.14102 0.719989 
1.23554 0.72668 1.35136 1.06572 1.26939 1.05456 1.26189 0.969322 1.27178 
1.04998 1.2237 1.03415 1.16084 0.809853 1.43351 0.87211 1.21524 1.02214 
0.872273 1.10402 0.746885 1.22022 0.656225 1.15997 0.703567 0.627517 1.23313 
0.66097 1.20084 0.491415 1.51021 0.602634 1.34848 0.80823 1.32517 0.760212 
1.39391 0.848978 1.17088 0.838986 1.34396 1.05588 1.27327 0.759906 1.14345 
1.05176 1.27715 1.0116 1.18943 0.814875 1.05154 0.671195 1.1313 0.942673 
0.942873 0.83309 1.0247 0.632043 1.15008 0.778763 1.06951 0.692956 1.14634 
0.666336 1.11916 0.601212 1.52252 0.634328 1.336 0.479117 1.58191 0.53143 
1.55228 1.09214 1.10581 1.04989 1.19917 1.16025 1.05127 1.11796 1.23207 
1.04343 1.19142 0.82865 1.06916 0.956145 1.01253 0.888101 1.05021 0.747582 
1.29709 1.07272 1.17578 1.01188 0.939939 0.819369 1.23897 0.822016 1.43336 
1.20944 1.3876 1.15976 1.3606 1.08985 1.35845 1.14815 1.30997 0.957215 
1.60704 1.02496 1.24427 1.04534 1.29536 0.903296 1.54994 1.12577 1.34188 
0.731299 1.54172 0.872689 1.492 0.689062 0.995262 0.879618 0.942169 0.610951 
1.16188 0.721035 0.999096 1.86438 2.78185 2.143 2.36473 1.94399 2.02688 
1.90327 2.17869 0.771248 1.15741 0.81125 1.08917 0.73641 1.11963 0.802587 
1.13416 0.750655 1.07563 0.640556 1.61346 0.549651 1.58501 0.540788 1.66349 
0.854652 1.80603 0.993674 0.969094 0.923281 1.18906 0.828654 1.11594 1.07169 
1.21795 0.995407 1.54959 1.71327 1.08714 1.22808 1.43077 1.11431 1.23513 
1.3804 1.47796 0.792344 1.75573 1.29718 1.4964 1.09594 1.28597 1.22815 
1.46952 1.27911 1.48707 1.24009 1.44362 0.984297 1.58492 1.3364 1.4857 
1.18917 1.28812 1.01803 1.49868 0.847407 1.81606 0.887279 1.26986 0.876937 
1.77161 0.867072 1.7476 0.836308 0.889758 1.01826 0.613571 0.887893 1.20267 
0.807991 0.874925 1.83137 2.30997 1.8526 1.90627 1.95127 1.65194 1.75058 
2.1839 0.495884 1.15744 0.762915 0.785197 0.691229 0.911734 0.571775 1.08599 
0.88962 0.941216 0.885155 0.91223 0.825322 0.986972 0.832585 1.00163 1.6606 
0.81478 1.86437 0.929106 1.35666 0.776344 1.56732 0.78652 1.45976 0.750172 
1.62847 0.824446 1.59173 0.918148 1.48532 0.7634 1.23815 0.981859 1.7541 
0.946139 1.22477 1.04551 1.45321 0.955714 1.9707 1.04391 1.51363 0.908498 
2.20673 0.863687 1.91513 0.885032 1.36172 1.34022 1.04795 1.06964 1.07578 
1.04382 1.30846 1.21241 2.3248 0.705641 2.1783 0.686679 2.20903 1.12016 
2.69579 0.778455 1.01269 1.12275 0.936711 1.0052 1.04381 1.07966 0.955758 
1.06369 1.21123 1.10811 1.08596 1.19621 1.02851 1.14879 1.14605 1.20097 
2.56582 1.61131 2.3703 1.36872 2.29505 1.58566 2.33484 1.61698 1.27406 
1.32621 1.46819 1.47527 1.30257 1.40919 1.42848 1.44199 1.4898 2.26397 
1.66113 2.11453 1.24625 2.19714 1.42478 2.14367 1.28509 2.42425 1.27944 
1.57959 1.11414 1.85533 1.2611 2.10364 1.03465 1.2449 0.927429 1.19088 
1.00198 1.17049 0.931236 1.11184 1.07476 1.04207 1.17548 1.04675 1.38624 
1.16307 1.085 0.996099 1.93816 0.979792 1.84391 1.17372 2.0102 1.07797 
2.09134 1.01698 1.289 2.01553 1.49361 1.90182 1.44027 2.94019 1.50675 
2.34557 3.03679 0.61205 2.96258 1.03363 2.71948 1.12389 3.14673 0.894772 
0.926086 0.690512 0.722084 0.770165 0.694374 1.22343 0.66203 0.845846 1.59984 
1.35052 1.14838 1.45243 1.40405 1.42366 1.4257 1.42337 2.28042 1.28147 
1.78154 1.30348 2.42923 0.864257 2.42202 0.939432 3.22394 1.08437 2.40197 
1.44391 2.45316 1.44954 2.77978 1.32075 1.99476 0.80332 1.53395 1.22306 
0.749873 1.5789 1.19293 1.31233 2.71988 0.887185 1.80151 1.11507 3.00982 
1.39576 2.21354 1.22105 1.30945 0.912535 2.08015 0.7724 1.34088 0.969822 
1.59236 0.800249 2.05362 0.93104 3.63391 0.786482 3.00554 1.23335 2.95314 
1.00127 3.25695 0.845032 1.66431 0.950715 2.12341 1.22893 2.58691 0.827574 
1.97893 1.61191 2.07154 1.44242 2.22497 1.26331 2.12833 1.37231 4.19296 
0.644759 2.94198 1.0913 3.11147 1.01559 3.40475 0.982083 1.20917 1.75135 
1.76749 1.27305 2.19287 1.1349 1.93804 1.22581 1.68939 0.685178 0.743561 
1.17758 0.840662 0.695455 0.963531 0.968594 2.32954 0.492422 1.74472 0.653434 
1.9274 0.789529 1.91033 0.62782 0.987058 1.18707 0.860498 1.26028 1.00379 
1.04239 0.906504 1.2156 1.24822 1.85358 2.29477 1.14281 1.32954 1.95265 
1.45808 1.6856 1.98041 0.956787 1.50822 0.754733 1.61359 0.720944 1.53497 
0.910054 1.0882 0.905221 1.08895 0.957424 0.966636 0.869549 1.05977 0.916453 
0.9468 1.03444 0.861752 1.08622 0.98559 1.11692 0.929787 1.04724 0.923332 
1.20392 0.965034 1.20531 0.942457 1.18935 0.897148 1.17809 0.98627 0.875469 
1.23938 1.06569 1.37091 0.950149 1.15947 0.941787 1.81166 1.4112 1.19426 
1.28055 1.84055 1.75894 1.77462 1.67158 1.01887 1.19189 1.41768 1.30524 
1.30179 1.62683 1.10159 1.23812 1.55824 0.759127 1.38776 1.00979 1.25306 
0.974961 1.38202 0.933453 1.20818 1.33413 1.41905 1.51381 0.894801 1.01489 
1.14413 1.23344 0.976423 1.07299 0.988344 1.20364 1.39384 1.67037 1.10495 
1.29718 0.946392 0.91803 0.982499 0.833461 0.956423 0.878579 0.950624 0.883569 
1.13173 1.37311 1.2015 1.45095 1.32662 1.62962 1.14961 1.44297 1.74687 
1.8871 1.70157 1.6691 1.49407 1.33956 1.54417 1.50749 1.19112 1.52744 
1.33956 1.57536 1.32482 1.53747 1.14174 1.38951 1.21478 1.49681 1.06345 
1.41064 1.33283 1.69262 1.32011 1.62242 0.615893 1.54621 0.577928 1.69217 
0.68848 1.13594 0.7038 1.49848 0.937119 1.21128 0.982626 1.31041 1.736 
1.94125 1.16207 1.48014 1.52422 1.63285 1.60151 1.58605 1.52904 1.45006 
1.5175 1.48184 1.3328 1.4683 1.41886 1.34221 1.45321 1.24758 1.41928 
1.3781 0.879471 0.992851 0.993855 0.983901 0.938188 1.01814 0.91685 0.963829 
0.981728 0.97223 0.924444 0.969199 0.976856 0.850238 0.978814 0.924575 2.08872 
1.33772 1.47092 1.99763 2.2408 1.23383 1.98964 1.4318 1.03118 1.1486 
0.988433 1.18962 0.952182 1.10202 1.00273 1.15869 1.08779 0.98252 1.11221 
0.920208 1.03619 1.05406 1.13548 0.963334 0.913007 1.15331 0.964589 1.12537 
0.964294 1.17319 0.946181 1.17866 1.07233 0.774483 1.13208 0.73231 1.18703 
0.668269 1.145 0.709238 1.85829 1.79032 1.64868 1.8622 1.63678 1.70949 
1.87464 1.96436 1.24364 0.640124 1.17699 0.703949 1.07332 0.789896 1.22772 
0.655995 1.06392 0.803921 1.11666 0.902254 1.15522 0.76872 1.06929 0.83565 
1.61525 1.43603 1.66694 1.33954 1.65532 1.65008 1.644 1.60765 1.11209 
0.841238 1.03918 0.937418 0.987996 0.970856 0.959524 0.943676 1.58878 1.76741 
1.27894 1.4489 1.57553 1.68267 1.47381 1.61013 1.4962 1.61946 1.46998 
1.34744 1.39773 1.38389 1.52918 1.57934 1.44449 1.20276 1.76941 1.72859 
1.10191 1.24704 1.50987 1.39912 1.12082 0.796302 1.04634 0.880634 1.29319 
0.6274 1.15669 0.764111 1.42062 1.64249 1.52479 1.79839 2.01481 2.20024 
1.73394 1.92212 1.35638 1.13931 1.38756 1.32027 1.29275 1.27353 1.37648 
1.30768 1.66233 1.86675 1.46752 1.54838 1.79914 1.89498 1.70674 1.64374 
0.968316 1.08052 0.958078 1.15179 1.01276 1.20927 0.889059 1.14306 1.74451 
1.382 2.61033 1.41697 1.39526 2.39899 2.24252 1.66838 1.6295 0.996962 
1.71817 1.88386 1.50082 1.38329 1.79458 1.55833 1.4618 1.39494 1.21509 
1.03165 1.97624 1.26841 1.39866 1.0211 1.31838 1.00829 1.01867 0.9535 
2.77168 1.78224 1.33165 1.36693 1.66921 2.16133 1.28354 1.12148 2.35992 
1.27465 1.85368 1.48164 1.48429 1.27014 1.74376 2.64518 2.73605 1.52491 
1.75221 2.06468 1.64138 2.41066 4.13003 1.21351 1.8691 1.40989 2.01197 
1.92991 1.70305 1.52583 2.90696 1.51706 1.62739 1.03538 2.20338 1.08949 
0.961564 0.911702 1.01942 0.824581 1.00199 0.842214 1.00798 0.835673 1.94485 
2.93127 1.79007 2.02959 1.95447 2.22803 1.75495 2.36092 1.03291 0.955408 
1.19099 1.01258 1.19575 1.08036 1.13934 1.06332 0.867658 1.02807 0.961868 
0.966642 1.15201 0.910424 0.941297 0.967775 0.642611 1.44533 0.719911 1.26386 
0.700963 1.16199 0.70869 1.21721 1.78884 1.52367 1.53867 1.96445 2.29452 
1.30046 1.92698 1.53096 1.99837 2.30876 1.95442 2.17107 1.8821 3.00351 
2.1314 2.61168 2.21282 2.37156 2.2966 2.34984 2.02389 1.97069 2.0368 
2.01643 2.31057 2.3855 1.87315 3.21438 2.05522 2.09827 2.22804 2.55709 
2.26585 3.66107 2.37522 2.48262 1.93854 1.9927 2.13447 3.04274 1.73832 
1.76775 2.49309 2.13036 2.06919 2.98498 2.44845 2.40616 1.82263 2.71267 
1.87034 2.09008 1.99711 2.00917 1.82566 2.37079 2.94764 2.15797 1.67654 
1.37435 2.51614 2.23998 2.49695 2.08585 1.62263 1.33884 2.74212 2.15149 
1.75868 1.33041 1.82029 1.35116 2.62645 2.30772 1.80087 1.62425 2.59943 
2.00179 2.58102 2.10076 1.7448 1.58679 2.57826 2.26039 1.72233 1.51825 
1.74788 1.59976 2.53829 2.07702 1.83488 1.62959 1.82274 1.63693 1.82789 
1.60188 2.38873 2.07817 2.21876 1.86324 2.18497 1.93476 2.1868 1.88155 
1.31109 1.16448 1.29936 1.06002 1.25198 1.04345 1.17603 1.14089 2.46424 
2.0318 2.02025 1.99658 1.95993 2.58456 2.01144 2.22335 1.26062 1.34596 
1.16349 1.14668 1.17054 1.02642 1.17211 1.15439 3.49644 1.21153 1.62467 
2.28753 2.16004 1.44298 2.85948 1.39062 1.8527 1.58398 1.57168 1.54687 
1.78009 1.68374 1.75038 1.70671 0.992358 0.867995 1.06033 0.795155 1.15844 
0.716863 1.03697 0.832902 0.808767 0.796031 0.778226 1.01394 0.851732 1.00156 
0.855065 0.907584 2.60767 1.89236 2.56602 2.26589 2.34321 1.80768 2.58102 
1.93729 1.0722 0.817424 0.95823 0.864343 0.967002 0.895988 0.937014 0.906348 
1.06026 0.836063 1.11031 0.778811 0.950824 0.881069 1.08563 0.800704 1.86963 
1.30612 1.89802 1.55921 2.20887 1.16234 1.99462 1.26763 1.01572 0.867915 
1.01596 0.845772 1.14082 0.768049 0.988927 0.87143 1.0794 0.793842 0.869685 
0.88839 0.983822 0.882113 0.99715 0.838511 1.26251 1.57909 1.07123 1.53997 
1.10213 1.74768 1.13363 1.49313 0.926478 0.85914 1.18969 0.687011 0.998686 
0.870928 1.11154 0.726352 1.52783 1.37222 1.70204 1.53565 1.68486 1.70012 
1.66114 1.55028 1.22424 0.65556 0.948868 0.855008 0.929056 0.797987 1.04843 
0.769773 0.892889 1.08503 1.04517 1.01802 1.04744 1.07709 1.00987 1.04176 
1.42602 1.53209 1.49484 1.35848 1.66786 1.67938 1.48122 1.5207 1.19941 
0.699188 0.937601 0.801864 1.0302 0.781416 1.06143 0.729249 0.793852 0.989344 
0.962447 0.873703 0.762277 1.05155 0.816954 0.960949 0.835313 0.850834 0.890031 
0.930024 0.945015 0.894424 0.892734 0.918956 0.895345 0.895661 0.833846 0.867218 
0.88335 0.842396 0.84155 0.867852 1.01031 0.903535 0.789659 1.08341 0.964965 
0.973211 0.962553 0.967802 1.09608 1.41577 1.10555 1.28636 1.28985 1.48915 
1.10964 1.38423 0.83309 0.830415 0.960358 0.875682 0.877437 0.844175 0.875039 
0.839143 0.809219 1.04693 0.950499 0.961781 0.936959 0.978626 0.861784 1.0049 
0.745262 1.7551 0.812127 1.42302 0.91706 1.48428 0.739895 1.63597 1.05199 
1.01636 0.897926 1.24955 1.01954 1.0968 0.998719 1.05873 1.87673 1.63803 
1.74118 1.41953 1.58096 1.55131 1.72203 1.42014 0.906961 1.26208 1.07692 
1.26648 1.03073 1.12913 1.00384 1.24744 1.06202 1.35563 0.859415 1.39588 
0.786668 1.72065 0.892238 1.44512 1.1704 1.39538 0.861463 1.75865 1.25672 
1.59638 1.06956 1.6056 0.953765 0.887923 1.00631 0.874122 1.05326 0.902864 
0.957744 0.928286 2.67058 2.06449 2.32992 2.03923 2.17037 1.92046 2.65815 
2.10354 0.972697 1.0036 1.02031 1.03521 0.977626 1.01133 1.03657 0.97723 
2.67401 1.81844 2.35486 1.70688 2.49661 1.96671 2.55422 1.87773 1.91446 
1.60205 1.87029 1.35139 1.94197 1.58522 1.91024 1.56245 0.892165 0.996503 
1.18237 0.875165 1.13881 0.944832 1.11719 0.961407 1.18455 1.66403 1.17314 
1.46573 1.63252 1.33559 1.15565 1.63073 3.06693 2.65668 2.10576 1.7847 
3.11462 2.05616 2.97137 2.1668 2.28581 1.79214 2.36085 1.70729 2.54954 
2.01503 2.32901 1.89309 2.47083 1.83124 3.28381 1.81973 2.75847 1.81483 
2.86182 1.7208 2.62643 2.17841 2.78312 1.95557 3.05879 1.88846 2.98409 
1.96998 2.99969 1.912 2.07428 1.6506 2.57099 2.12112 2.25949 1.729 
2.57255 1.56022 2.80614 1.29257 2.36618 1.286 2.64215 1.36781 3.19008 
2.57507 2.92766 1.46416 2.71731 1.75591 2.92312 1.67238 1.29842 1.40777 
1.43221 1.60889 1.29402 1.52831 1.28443 1.52706 1.94701 1.53133 2.56929 
1.2082 3.42278 2.83277 2.28248 1.3523 2.07815 1.44131 2.32613 1.28881 
2.70568 1.22099 2.34754 1.29208 3.86968 3.10615 2.79273 1.44629 3.60489 
2.89112 3.52522 2.67053 1.95896 1.54429 3.56749 3.18149 2.89233 2.86379 
2.82415 2.56191 0.922773 0.972399 0.808732 0.936172 0.573248 1.47697 0.866817 
0.955286 3.3503 2.70097 2.99975 1.92606 3.02177 2.44523 2.97323 2.46554 
0.944594 0.906642 0.89994 0.919362 0.906674 0.918658 0.911082 0.944138 1.94456 
1.63677 1.41091 2.15087 2.12811 1.35919 1.86294 1.64831 1.87911 3.05234 
2.0578 2.30376 1.71034 1.84552 1.92663 2.44627 3.03997 1.69615 2.32192 
1.73194 2.66389 2.0492 2.72653 1.94068 0.920032 0.87237 0.91999 0.910605 
1.13192 0.689191 0.992698 0.815266 1.40113 1.75663 1.38892 1.81264 1.68908 
1.88306 1.47971 1.68995 2.11407 3.69429 1.77326 2.0794 2.1085 2.50888 
1.8584 2.80009 1.4165 1.68382 1.22056 1.7511 0.892938 2.01682 1.00873 
1.85991 1.28272 2.33373 2.11722 2.3133 2.46869 3.00771 1.91358 2.28334 
1.9816 1.29195 2.23687 1.1593 2.29943 1.08336 2.22633 1.10461 1.44139 
2.11596 2.71139 3.08467 1.81904 2.19516 1.75342 2.33257 2.99328 3.32274 
1.32075 2.0813 2.77221 3.30987 2.19799 2.7845 0.995076 0.954661 0.916311 
0.926964 0.883731 0.949861 0.937713 0.915685 1.78793 2.2772 2.94538 3.33493 
2.42487 2.80076 2.44916 2.74641 2.56277 1.35446 2.06916 1.5081 2.83411 
2.08517 2.16781 1.66506 1.63297 2.06669 1.24213 1.94229 1.25653 2.1481 
1.29381 2.01335 1.25043 2.49823 1.90278 2.10511 1.36341 2.4373 1.30759 
2.4133 0.831099 1.10924 0.978287 0.923996 1.01246 0.973313 0.883253 1.04915 
0.71493 1.57194 0.71616 1.32699 0.750581 1.44622 0.759916 1.42758 0.918807 
1.31584 0.95125 1.40053 0.820665 1.38253 0.897783 1.3527 2.97201 2.78022 
2.58355 2.13612 1.95274 1.78739 2.69857 2.48735 1.39641 1.64139 1.67489 
1.78388 1.45494 1.62258 1.45266 1.61605 1.12168 0.753004 1.07038 0.767473 
1.1885 0.673196 1.14418 0.717903 1.07051 1.43197 1.2036 1.45136 0.798835 
1.84456 1.0898 1.59622 2.4658 1.58269 1.21352 1.11263 1.68085 1.01089 
2.08638 1.18131 0.918204 0.876841 1.14236 0.666333 0.926857 0.88322 1.03598 
0.758228 1.0772 0.579758 1.50617 0.753749 0.835412 1.17258 1.33527 0.815592 
1.2699 1.31654 0.936961 1.61324 1.81976 1.23014 1.4056 1.29541 0.982961 
1.40474 0.889858 1.27429 0.851038 1.55373 0.847343 1.48479 0.750982 1.23604 
1.22879 1.05655 0.919652 0.813757 0.994254 1.03283 1.30463 1.03606 1.24197 
1.2142 1.17667 1.09037 1.26755 1.05942 0.992022 0.919271 0.992588 0.860589 
1.05336 0.952009 1.01192 0.874347 1.19931 1.25939 1.48617 1.61014 1.23671 
1.08125 1.17272 1.34594 1.01749 0.900477 1.08777 0.819886 1.15811 0.90094 
1.06719 0.915556 1.23071 1.08151 1.05333 0.946698 0.968154 0.913323 1.00265 
1.00897 1.47596 1.2389 1.31691 1.14402 1.31194 1.21787 1.26773 1.12766 
1.93719 0.694227 1.63142 0.840473 1.70665 0.856288 1.86067 0.936559 1.65457 
1.29259 1.76056 1.32455 1.59023 1.29381 1.64075 1.31242 1.79413 1.21586 
1.70425 1.44314 1.79625 1.21436 1.78554 1.27682 1.53446 1.16052 1.71856 
1.06834 1.58046 1.31353 1.58081 1.21965 0.993344 0.868276 0.976552 0.877742 
1.01995 0.823189 0.999197 0.841034 1.06417 0.929475 1.02719 0.83632 0.98544 
0.904322 1.03889 0.882646 1.26454 0.975217 1.04726 0.877866 1.24401 0.82411 
1.28559 0.933713 1.43712 0.94653 1.75772 0.966883 1.67149 1.02364 1.62333 
0.971778 1.82914 1.44036 1.86451 1.3699 1.47582 1.34897 1.81643 1.42369 
1.12007 0.983251 0.999555 0.902775 1.36037 0.922399 1.21499 0.866241 1.77488 
1.34905 2.1173 1.2411 1.38335 1.38493 1.75748 1.44372 2.36764 0.870125 
2.00146 0.591137 3.23809 0.557489 2.71019 0.637659 1.68523 1.84749 1.66132 
1.77657 1.40235 1.67249 1.6257 1.78775 1.34464 1.16583 1.26974 1.35688 