# vtk DataFile Version 3.0
vtk output
ASCII
DATASET POLYDATA
FIELD FieldData 2
Radius 1 853 float
1.66619 1.52497 1.39997 1.3687 1.42862 1.5414 1.62063 1.68494 1.77953 
1.86876 1.91901 1.89839 1.80045 1.68004 1.67504 1.79851 1.91596 1.852 
1.62283 1.29555 0.999481 0.705805 0.489988 0.380286 0.40363 0.582772 0.789397 
1.07049 1.43105 1.73904 1.95337 2.03876 1.97549 1.82671 1.59135 1.3315 
1.12176 0.92865 0.723191 0.571447 0.533199 0.565457 0.608006 0.643657 0.679286 
0.722474 0.752208 0.786614 0.82076 0.849618 0.863201 0.89684 0.974462 1.09226 
1.24712 1.40219 1.50949 1.56786 1.63492 1.69517 2.19564 2.09457 2.17491 
1.99626 2.06852 2.01344 2.27106 2.20433 2.37281 2.31477 2.54476 2.56463 
2.69306 2.64628 2.93319 2.76343 2.8999 2.8327 2.8649 2.65359 2.83856 
3.03527 3.26568 3.13998 2.96972 2.77682 2.40548 2.04077 1.56828 1.37636 
1.0434 0.871313 0.79316 0.838761 0.914485 1.10411 1.4037 1.65256 1.99247 
2.3854 2.7901 3.04559 3.26116 3.22706 3.11041 2.98162 2.69431 2.46273 
2.17321 2.01858 1.82375 1.629 1.35838 1.2034 1.11351 1.18105 1.17794 
1.18244 1.10194 1.17072 1.1788 1.26114 1.22387 1.23613 1.19882 1.24184 
1.23887 1.23304 1.16228 1.23853 1.19017 1.26475 1.47555 1.61194 1.79718 
1.82449 1.93737 1.94395 2.09786 2.09239 1.51152 1.4455 1.77297 1.54111 
1.65124 1.98176 1.5966 1.80612 2.11893 1.63273 2.3569 2.25718 1.56935 
1.61158 1.12503 1.9427 1.69487 1.92707 1.65492 1.23228 1.23246 2.64418 
2.47672 2.41013 3.60581 3.70202 1.61198 2.446 2.45284 0.903351 1.86548 
1.73599 2.83338 3.33903 3.42789 3.80103 2.95382 1.45293 2.7835 3.72103 
3.9878 1.99922 2.34752 3.43301 1.53112 2.66403 2.362 4.04417 3.7642 
3.43885 3.20847 2.17071 2.0372 2.15571 2.03652 2.62085 3.83379 3.04509 
3.09841 3.96455 2.28793 4.30938 3.76997 2.30379 2.10731 3.90998 4.29525 
3.56529 4.13204 3.00387 3.1083 3.4659 3.60065 3.80132 3.89595 2.79167 
2.87653 3.48259 3.50806 3.14351 2.95412 4.13896 2.57437 3.85179 3.92524 
1.85734 2.07024 2.65652 4.13945 2.49385 3.10661 2.75654 1.8091 2.19454 
1.96667 3.2103 2.59897 2.57743 1.90457 2.43009 1.86742 1.69952 1.48884 
1.30746 2.69051 2.25552 2.12437 1.65553 2.16282 3.68965 3.62187 2.28991 
2.94745 3.47359 3.56857 1.72792 3.04195 3.49759 3.40003 3.62723 4.00008 
1.74207 1.59046 1.14427 2.71514 2.17534 2.55748 1.40424 1.29677 1.17121 
1.37871 1.79405 2.23164 1.93657 1.23123 0.858883 2.38632 1.76271 2.51796 
3.05138 3.77273 3.46581 2.13026 2.40414 2.57795 2.85602 2.61327 2.63832 
2.42956 2.93949 2.7597 1.4518 2.11656 2.0352 1.75585 3.10669 3.20595 
3.313 3.61381 3.16281 3.20642 3.19079 3.08503 3.00352 1.85609 2.42554 
2.32024 2.77526 2.99108 3.19055 2.34949 2.85783 2.19798 1.73919 2.32325 
2.39809 1.92072 2.91844 2.50478 2.61076 2.32182 2.30852 1.90087 2.32255 
2.31608 2.37165 2.53564 2.22782 2.65977 1.82609 2.27905 3.2831 3.19655 
2.8779 2.25951 2.30995 2.02875 2.46216 2.42363 2.30107 3.05271 3.78916 
3.86361 3.69736 2.84142 3.2995 2.72566 3.36502 3.36495 3.34408 2.35816 
2.79873 2.06837 2.37636 2.73315 2.5873 2.98306 1.40759 1.68867 1.65121 
2.29041 1.8321 1.8901 2.94517 2.85548 3.04839 2.94417 2.60611 3.03703 
3.49956 3.32723 3.46556 3.64981 2.13325 2.62505 3.75775 3.39806 1.34025 
0.835016 0.968571 0.735737 1.02726 1.32738 1.14544 0.834451 0.610507 0.663836 
0.423648 0.983435 0.578538 0.98459 0.886619 0.737398 1.02802 1.0022 1.1858 
1.20021 0.602306 0.368312 0.978222 0.789159 0.970391 1.15239 1.48136 0.677704 
0.864066 0.699295 0.488387 0.796104 1.037 0.682984 0.907602 1.02047 1.16921 
1.02093 2.21764 2.27671 2.15304 1.52302 1.35884 1.58821 1.05786 1.1869 
0.910811 1.17885 1.32686 1.55282 1.53062 1.78747 1.64242 1.96781 1.81096 
1.8296 1.25933 1.80852 1.24288 1.55482 1.36356 1.47192 2.30528 2.31365 
1.37281 1.39438 1.60858 1.36921 2.54528 3.52495 3.84506 1.91445 2.64532 
2.68644 3.16419 2.06156 2.56538 2.28437 3.25405 3.52941 3.58004 2.10075 
1.44996 1.22645 1.65068 1.63447 1.53081 1.36845 1.30282 1.20496 1.42093 
1.37172 1.24697 1.02387 1.71626 3.94157 3.95451 4.01627 1.24495 1.40293 
2.37812 2.18496 2.58806 2.19941 1.94678 2.05059 1.7785 1.87342 1.73455 
1.99981 1.5932 1.86091 2.51745 2.18817 2.91144 2.75782 2.01837 3.14385 
2.72384 2.01325 2.63539 1.61111 1.72111 2.93739 1.72718 1.62152 1.68165 
3.52112 3.63605 3.39255 1.25161 1.41246 1.45562 1.56355 1.50821 2.97282 
3.04272 2.8482 3.02748 3.42788 1.45412 1.24382 0.818179 1.19367 3.20401 
2.92069 2.23511 2.5416 2.15305 1.73303 2.8094 2.80393 2.92168 2.01944 
2.40757 2.03572 1.65214 2.00772 1.63996 1.72237 2.03183 1.98154 1.5838 
2.48791 2.4752 2.25948 1.4911 1.91075 1.89842 2.29634 2.34736 2.27818 
2.41257 2.13766 2.72349 2.63449 2.58171 0.955459 0.974995 1.26817 1.86273 
1.47533 1.48921 1.09114 0.641453 0.763248 1.37194 1.26579 1.58294 1.98264 
1.45438 1.13859 1.92273 1.80665 2.32509 2.43057 0.531795 1.7597 2.54919 
2.59447 0.885871 1.74547 1.38721 2.71637 1.76817 1.67746 1.37221 1.77255 
2.1127 1.69751 1.78349 1.44994 2.03313 1.85 2.12524 1.93409 1.91172 
1.96003 2.16414 1.61231 1.20143 1.51909 1.51188 1.69241 2.00297 2.137 
2.08045 2.00294 1.90605 1.74482 2.27891 1.94597 1.67575 1.91762 2.20067 
2.11058 1.95052 2.01257 1.82933 2.18268 2.133 1.78372 1.95282 1.7973 
1.5981 1.7139 1.88862 1.76875 1.53963 1.46862 1.67102 2.05207 2.04829 
1.99746 2.25296 2.49117 2.49591 2.05946 1.64884 1.83609 2.0485 1.98914 
1.78909 1.69696 1.89852 1.92569 1.8196 0.548365 0.900787 0.900106 1.82658 
0.909143 0.584468 0.967115 1.16059 1.58794 1.42747 0.906945 1.13682 2.19225 
2.22892 0.937747 0.916528 1.15246 1.44303 2.14861 2.02134 0.625992 1.44318 
1.19195 0.974718 0.95662 0.661817 1.05655 0.995617 1.22654 1.63894 0.698277 
1.01763 1.44144 1.38076 1.23049 1.0205 1.02899 1.91743 0.769383 1.02024 
1.02775 1.03896 0.803662 1.60808 1.40053 1.3807 0.737163 1.89352 2.09414 
1.85079 1.55421 1.70964 1.67626 1.81717 1.55918 1.70006 1.46386 1.37841 
1.32437 1.39602 1.37019 1.28622 1.19204 1.1187 1.07924 1.23629 1.34011 
1.02741 0.932254 1.06284 1.16749 1.5156 1.37009 1.34896 1.07114 1.11688 
1.30801 0.836388 1.05251 1.04815 1.23509 1.10733 1.03157 1.20075 1.21662 
1.05618 1.03643 0.874062 1.37282 0.856712 2.07965 2.10044 1.72499 2.60273 
2.3836 2.28217 2.40693 2.64228 2.33021 2.33302 3.02075 2.07938 3.37987 
3.55906 3.79146 3.90563 4.14193 2.78901 2.90694 1.6783 2.05567 2.76781 
3.51102 3.34299 3.32222 3.79233 3.77035 3.57125 3.99505 3.194 1.83143 
3.18015 2.43818 3.64802 4.2282 4.28017 4.18881 2.41633 2.05431 1.61876 
3.14373 3.28666 1.82832 1.91133 2.87198 2.69635 2.92305 3.27251 3.87978 
4.03293 3.30669 3.41901 4.17625 4.27455 3.55004 3.36151 3.66021 3.3342 
2.44534 3.045 3.15991 2.61123 2.33373 1.82393 1.82781 2.05137 2.88139 
2.21388 2.23596 2.74391 2.56285 3.00866 3.82312 4.18613 3.22035 3.62221 
3.24015 2.77759 4.01344 4.05079 2.37652 2.0137 4.10295 4.10529 3.9734 
4.04641 3.80165 3.66948 2.28224 2.21695 2.28615 2.25992 4.31904 4.34131 
4.2486 4.24111 3.69282 3.88454 3.97953 4.05485 3.7946 3.50677 3.28443 
2.81543 3.74149 3.6474 3.63617 3.8503 3.92249 4.17738 4.07541 4.07058 
2.62914 2.48816 3.00642 2.77642 3.89747 3.86959 2.74042 
Rho 1 853 float
-0.343181 -0.261429 -0.0736415 0.0392682 -0.0136353 -0.13007 -0.14997 -0.112062 -0.0966886 
0.00187142 0.230899 0.34585 0.176502 -0.0292709 0.167632 0.492608 0.569831 0.54726 
0.633946 0.465297 -0.00610961 -0.320245 -0.208268 -0.0765644 -0.24161 -0.569177 -0.715287 
-0.60643 -0.3614 -0.160001 -0.00922512 0.0528145 -0.0887681 -0.293888 -0.331393 -0.289694 
-0.196136 -0.0509875 -0.110955 -0.288445 -0.193494 0.0214575 -0.0436207 -0.214638 -0.252401 
-0.174707 -0.190843 -0.363887 -0.538422 -0.641493 -0.73015 -0.888125 -1.03523 -1.01518 
-0.91694 -0.863503 -0.863622 -0.763862 -0.545298 -0.386163 -0.380172 -0.351713 -0.300573 
-0.170962 -0.027766 0.0385087 -0.00530741 -0.0781394 -0.111893 -0.104757 -0.0640688 -0.0820213 
-0.0596147 0.0657979 0.199789 0.330237 0.271528 0.0524664 -0.10127 -0.00453066 0.303179 
0.526278 0.462676 0.367805 0.402429 0.520607 0.533709 0.170946 -0.217106 -0.350918 
-0.302907 -0.147068 -0.130627 -0.269615 -0.454599 -0.644429 -0.655781 -0.591827 -0.446483 
-0.26524 -0.126772 -0.00254278 0.0611398 0.018373 -0.14537 -0.267758 -0.261538 -0.245874 
-0.243028 -0.196689 -0.0200316 -0.0129576 -0.150624 -0.294144 -0.210545 -0.0407085 0.0153254 
-0.0932622 -0.184608 -0.274879 -0.244383 -0.19995 -0.166492 -0.283172 -0.451502 -0.566745 
-0.624966 -0.66847 -0.758759 -0.843582 -0.970098 -1.00773 -0.913404 -0.844482 -0.796046 
-0.830756 -0.774018 -0.66428 -0.525368 -0.42808 -0.842056 -0.709448 -0.740027 -0.591291 
-0.658769 -0.678431 -0.441493 -0.565538 -0.572417 -0.289104 -0.374233 -0.4441 -0.267063 
-0.307936 -0.26112 -0.112543 -0.10174 -0.469938 -0.129617 -0.25686 -0.464664 -0.0350015 
-0.0225446 -0.194401 0.188415 -0.0584734 -0.108215 0.00741382 -0.326213 -0.325523 -0.181841 
-0.4587 -0.0214446 0.0178585 -0.0843104 -0.109324 -0.0300176 -0.237005 -0.169773 0.146592 
0.128892 -0.41181 -0.103045 -0.179746 -0.321489 0.144638 -0.286974 0.286819 0.0317839 
0.107266 -0.17451 -0.0844816 -0.389417 -0.204501 -0.00790934 0.0227087 0.00660404 -0.130552 
-0.0675591 -0.030135 -0.0400625 0.0800996 0.0614655 -0.0809708 -0.157724 0.384105 0.165097 
0.10125 0.0662738 0.359503 0.00871458 -0.19413 0.0728047 -0.140808 -0.0814018 -0.23831 
-0.213281 -0.0298946 -0.0315928 -0.0536353 0.00106184 0.060153 -0.0155723 -0.0148923 0.0621187 
-0.0424716 -0.295263 -0.109649 -0.04598 0.574045 0.524705 0.52984 -0.156934 -0.158717 
-0.10718 0.414034 0.4994 0.481616 0.542993 0.534915 0.574227 -0.0601846 -0.0289083 
-0.0791135 0.137551 0.243782 0.0758402 0.0261229 -0.0390924 0.331498 0.242788 0.413966 
0.446197 0.323356 0.427979 0.342111 -0.223915 -0.137457 -0.199839 0.427695 0.288193 
0.341056 0.0968818 0.239495 -0.305746 -0.334015 -0.292013 -0.281093 -0.305505 -0.241805 
-0.12847 -0.055907 0.388219 0.534332 -0.283344 -0.206711 0.558026 0.58681 0.504387 
0.361913 0.0643216 0.205087 0.624753 0.599371 0.572534 0.470133 -0.262819 -0.244069 
-0.298261 0.452057 0.465968 0.608351 -0.00630819 0.0125122 -0.000798208 0.193955 0.264973 
[...]
CELL_DATA 3168
FIELD FieldData 1
Jacobian 1 3168 float
1.48862 1.48512 1.06276 1.27714 0.921021 1.55598 0.974336 1.41549 1.11008 
0.993339 1.06747 1.20277 1.18615 1.10235 1.09119 1.08252 1.1357 1.54817 
1.12849 1.2614 1.58068 1.38761 1.38607 1.47184 1.09458 1.2966 1.1615 
1.57 1.16689 1.3655 1.12009 1.34859 0.917515 1.33281 0.967065 1.33655 
0.822419 1.51324 0.949901 1.4281 0.84412 1.05415 0.84392 1.15521 1.02608 
1.22985 0.942255 1.20723 0.991292 1.20425 0.685591 0.994557 0.838433 1.10845 
0.724902 1.10635 0.774212 1.0662 0.998724 1.27244 0.87211 1.07402 0.880977 
1.10829 1.40379 1.66428 1.99023 1.4162 1.73325 1.43902 1.64369 1.45724 
0.871537 1.61893 1.00528 1.32002 0.874913 1.15379 0.830391 1.30217 1.7658 
1.52487 1.37421 1.79515 1.36115 1.34384 1.39592 1.52699 0.819123 1.175 
1.03736 1.28544 1.02704 1.27924 1.06506 1.22533 1.52462 0.762221 1.64889 
0.785626 1.39297 0.812103 1.70036 0.813304 2.06465 1.35818 2.04053 1.3796 
2.27862 1.45685 2.18459 1.36968 1.03309 1.20602 1.04574 1.26847 0.853974 
1.52185 0.888345 1.29152 1.40896 1.04563 1.93757 1.14286 1.68216 1.15812 
1.8127 1.12545 0.444405 1.2395 0.612011 1.03977 0.67553 0.901206 0.533924 
1.05284 0.736387 1.48503 0.839623 1.21273 0.960853 1.18353 0.929078 1.32319 
1.05081 1.22619 1.68561 1.18022 0.77621 1.51434 1.05115 1.45476 1.04508 
1.14224 1.06223 1.111 1.02592 1.04111 1.05103 1.04773 1.26684 1.37306 
1.5534 1.47731 1.41024 1.44848 1.41654 1.3564 1.56323 1.46004 1.26565 
1.4055 1.22391 1.65086 1.33632 1.59972 1.35834 1.85561 1.63857 1.72783 
1.62469 1.63167 1.50889 1.82016 1.60545 1.99916 1.83208 1.25523 1.46603 
1.48647 1.75965 1.60487 1.73715 1.32361 1.62567 2.15855 1.53079 1.5429 
1.65204 1.85271 2.1134 0.470881 1.18003 0.667689 1.65232 0.60923 1.75968 
0.407222 1.85537 1.36202 1.56361 1.94371 1.50717 1.85538 1.62452 1.69716 
1.45608 1.30814 1.58634 1.38402 1.2119 1.29294 1.38446 1.2022 0.978608 
1.08169 1.05978 1.12663 1.05676 1.03535 1.01681 1.11215 1.3424 1.56002 
1.27415 1.2444 1.14887 1.94953 1.34176 1.56944 1.0656 1.14603 1.28643 
1.17493 1.44504 1.1384 1.29718 1.22202 1.55888 0.898201 1.38059 0.956308 
1.49518 1.09129 1.44885 0.952875 1.19933 1.4304 0.970436 1.19186 1.03187 
1.30676 1.04351 1.26479 1.57963 1.21902 1.61758 1.35811 1.41786 1.35217 
1.56511 1.36262 0.989667 1.31844 1.23836 1.51607 1.09306 1.3652 1.13163 
1.45306 0.878134 1.10364 1.18924 1.23487 0.884017 1.14419 0.959808 1.10968 
1.1827 1.44872 1.11923 1.31998 1.10215 1.41775 1.08264 1.33546 1.28693 
0.791743 1.33291 0.701531 1.20955 0.750419 1.27602 0.712342 1.26675 1.46003 
1.21101 1.62604 1.5196 1.99777 1.34384 1.6305 1.49269 1.71719 1.44476 
1.52698 1.40359 2.29226 1.30858 2.01196 1.02883 1.09947 1.27255 1.42412 
1.58771 1.56648 1.2833 1.34554 1.1341 1.46497 1.71067 2.1991 1.11825 
1.58517 1.25008 1.67623 1.48274 1.80293 1.32464 1.81491 1.33427 1.78577 
1.32866 1.81353 1.65436 1.68933 1.92654 1.56856 1.81172 1.47288 1.69931 
1.59185 1.52375 2.04971 1.39451 1.71993 1.33118 1.38708 1.33229 1.44431 
1.30361 1.487 1.94103 1.85647 1.44318 1.71068 1.69479 1.81053 1.24497 
1.16493 1.20856 1.09928 1.30059 1.19646 1.24254 1.08388 1.63531 1.27267 
1.79268 1.80515 1.32325 1.34864 1.68139 1.50852 1.79454 1.20259 1.74586 
1.28972 1.72715 1.12705 1.78011 1.23605 1.1704 1.21209 1.30314 1.23553 
0.92788 1.06414 1.12781 1.19982 1.15701 1.15092 1.42291 1.03819 1.37181 
1.10396 1.18546 1.04343 1.42011 1.23023 1.66128 1.16038 1.49058 1.2193 
1.51444 1.15522 1.63006 1.39967 1.55539 1.53616 1.36923 1.48897 1.46121 
1.44665 1.00422 0.981593 1.10528 0.956356 0.797398 0.802897 0.993951 0.963986 
1.11308 0.788079 1.15891 0.935716 1.1275 0.779378 1.14538 0.886766 1.15057 
0.820229 1.19588 0.871638 1.14486 0.875165 1.12524 0.860215 1.05446 1.27759 
1.33377 1.36071 1.08981 1.41265 1.2443 1.46986 1.2337 1.16731 0.932353 
0.976838 1.10965 0.906732 1.07268 0.970503 1.1062 0.861234 1.09392 0.917255 
1.13058 0.982697 1.13132 0.900485 1.09714 1.11601 1.22736 0.99072 1.33174 
1.09136 1.23696 1.08751 1.67816 1.11617 1.38347 1.23538 1.56458 1.24199 
1.52404 1.14116 1.39222 0.991085 1.18293 0.933993 1.28931 0.970545 1.24111 
0.97568 1.7145 1.23811 1.77683 1.35017 1.7392 1.40203 1.81623 1.34318 
1.53495 0.96396 1.5182 0.875071 1.39281 0.786943 1.52994 0.833664 1.44405 
1.76028 1.31174 1.69794 1.31143 1.33807 1.48288 1.5925 0.8878 1.0768 
1.29683 1.08904 0.899118 1.09126 1.11757 1.11545 1.41144 1.11844 1.69356 
1.08011 1.4775 1.12392 1.5573 1.16026 0.935594 1.24099 0.879124 1.12241 
1.04705 1.32134 0.996836 1.22709 0.62532 1.21403 0.828903 1.03221 0.757909 
1.13087 0.713541 1.18155 1.00327 0.804951 1.06684 0.80503 1.03851 0.81345 
1.01303 0.816362 1.00111 1.13386 0.703762 1.17162 0.781247 1.08064 0.774848 
1.13217 0.751268 1.18337 1.03605 1.1702 0.993077 1.13865 0.924161 1.12539 
0.946559 1.06781 0.93115 1.00122 0.828148 1.22461 0.805603 1.02659 1.0915 
0.974112 1.08315 0.809625 1.16629 0.786373 1.13679 0.79685 0.60333 1.11144 
0.677749 1.1353 0.544706 1.30505 0.606242 1.20982 0.79839 1.22083 0.82197 
1.22252 0.84112 1.06584 0.860731 1.18762 1.05805 1.20653 0.822807 1.11994 
1.09307 1.27452 1.02736 1.15744 0.811906 1.06554 0.647038 1.16978 0.914241 
1.01149 0.80159 1.06475 0.589177 1.15592 0.745507 1.05939 0.630984 1.08687 
0.629862 1.11551 0.648245 1.21902 0.615171 1.1373 0.51895 1.31964 0.584759 
1.24391 1.15208 1.05084 1.04873 1.14934 1.11734 1.00502 1.1308 1.18827 
1.08805 1.23334 0.852342 1.09031 0.937252 1.0846 0.919687 1.1037 0.784005 
1.36229 1.14039 1.24512 1.04135 0.997684 0.845203 1.2909 0.853632 1.49651 
1.30416 1.47918 1.25298 1.43383 1.17567 1.4447 1.22395 1.38972 0.976081 
1.67926 1.07729 1.28542 1.07753 1.35691 0.907834 1.62022 1.18935 1.43284 
0.74329 1.62979 0.895913 1.57091 0.684472 1.04653 0.864836 1.00267 0.574896 
1.21821 0.688021 1.06567 2.11732 2.73836 2.49286 2.02556 2.00082 1.86152 
2.11867 2.04927 0.725503 1.05202 0.759871 0.9925 0.676645 1.00981 0.727013 
1.04016 0.767156 1.13592 0.654795 1.70782 0.556607 1.69751 0.54933 1.76232 
0.887701 1.8278 1.00208 0.958955 0.95391 1.18331 0.822373 1.13574 1.07125 
1.22052 1.00738 1.59419 1.75034 1.1366 1.25265 1.44795 1.09733 1.23703 
1.42246 1.53004 0.853319 1.84047 1.32509 1.53611 1.16043 1.24855 1.21311 
1.42354 1.2296 1.57415 1.23255 1.42005 1.05732 1.61313 1.29401 1.39366 
1.17913 1.23173 1.01917 1.4642 0.862693 1.83714 0.891798 1.28912 0.884838 
1.81418 0.893049 1.78729 0.830236 0.936479 1.05103 0.651523 0.89312 1.23891 
0.821001 0.920828 2.00981 2.47138 1.79635 1.85826 1.87683 1.79719 1.78658 
2.1755 0.434564 1.21734 0.682418 0.848575 0.651297 0.968292 0.532933 1.13493 
1.00801 0.926647 1.01481 0.938496 0.953543 0.990825 0.951688 0.995924 1.61409 
0.919713 1.9699 0.912559 1.2455 0.776241 1.50739 0.862254 1.70739 0.873056 
1.69724 1.00014 1.6298 1.10475 1.51686 0.937122 0.977531 0.767653 1.51449 
0.936043 1.05098 0.874857 1.2073 0.854126 1.87655 1.12607 1.31903 0.800234 
2.16922 0.913887 1.72302 0.874525 1.49962 1.17254 1.20967 1.04356 1.26577 
0.963551 1.47096 1.07941 2.13745 0.749829 2.01246 0.736875 1.92436 1.39126 
2.46382 0.836518 1.11074 1.16867 1.10274 1.0759 1.25019 1.03335 1.09526 
1.02773 1.25413 1.10567 1.09773 1.21231 1.09078 1.18782 1.13822 1.15566 
2.37816 1.65104 2.12578 1.45771 2.14311 1.73247 2.18248 1.69059 1.43446 
1.18459 1.68691 1.20642 1.48844 1.18378 1.62471 1.26332 1.6903 2.38611 
1.62528 2.06916 1.32968 2.17605 1.50293 2.13374 1.14302 2.46472 1.10508 
1.76834 1.08983 1.92615 1.12217 2.20355 0.850912 1.12912 0.814772 1.14696 
0.903995 1.33602 0.840326 1.07489 1.22968 1.05364 1.19151 0.919798 1.54595 
1.03697 1.20602 0.95765 1.72206 1.00403 1.56602 1.0829 1.66904 1.05369 
1.73044 0.988906 1.26337 2.00351 1.44023 1.87808 1.3383 2.77628 1.42828 
2.28389 3.13255 0.573281 2.99553 1.01059 2.66344 1.05715 3.16851 0.830885 
0.988119 0.712781 0.774845 0.822329 0.750076 1.27295 0.709082 0.882636 1.4517 
1.63963 1.15081 1.54632 1.30115 1.64144 1.31861 1.62732 2.15068 1.19355 
1.65815 1.22796 2.44885 0.864089 2.31609 0.895521 3.41942 1.07958 2.70973 
1.60597 2.48321 1.43029 2.98775 1.31747 2.1314 0.807396 1.49571 1.18814 
0.819039 1.66741 1.24395 1.35468 2.50393 0.876489 1.69684 1.24597 2.63227 
1.66934 2.00834 1.45132 1.28274 0.942607 1.91159 0.776401 1.12414 0.827324 
1.47044 0.729391 2.23484 1.08535 3.75422 0.858908 2.87259 1.52016 3.07392 
1.20487 3.77339 0.881337 1.9105 1.11893 2.57956 1.47104 3.0596 0.867551 
1.89066 1.71636 1.96406 1.48844 2.04698 1.41801 1.98776 1.4911 4.64128 
0.538946 3.56703 1.10998 3.26827 1.00552 3.96842 0.994434 1.20686 1.8884 
1.61037 1.5566 1.95913 1.42962 1.73944 1.49154 1.79214 0.659457 0.797497 
1.19736 0.902762 0.710338 1.05824 0.967685 2.06936 0.535095 1.62193 0.668189 
1.64616 0.768014 1.66252 0.68044 1.07498 1.10861 0.927847 1.17753 1.19582 
0.821445 1.02323 1.07074 1.22659 1.95964 2.03795 1.41288 1.30111 2.07034 
1.37862 1.90639 1.95903 1.01662 1.4545 0.835108 1.56758 0.762918 1.53265 
0.97942 1.17858 0.948565 1.27936 0.981668 1.13339 1.00983 1.2457 0.988475 
1.09668 0.865918 0.905644 1.01684 1.03707 1.06963 1.02067 0.941145 0.887033 
1.10034 0.834788 1.00969 0.805127 0.998655 0.805464 1.01195 1.14957 1.0034 
1.39214 1.05252 1.50161 0.976402 1.35797 1.03273 1.87609 1.531 1.3839 
1.5094 2.11495 1.7657 2.03127 1.79094 1.27287 1.46868 1.57407 1.47385 
1.42217 1.74822 1.27478 1.47737 1.57799 0.877477 1.51576 1.01605 1.41741 
0.96934 1.50322 0.940958 1.39609 1.43745 1.64214 1.5683 1.1125 1.18743 
1.36131 1.38515 1.28075 1.46689 1.20955 1.50177 1.69581 1.91367 1.40102 
1.57103 0.997801 0.890087 1.10386 0.863642 1.01253 0.872315 1.02871 0.889193 
1.31 1.6044 1.27868 1.52302 1.52257 1.8297 1.34319 1.62735 1.94775 
1.61395 1.67043 1.70215 1.52592 1.27877 1.6624 1.44236 1.50768 1.42258 
1.33116 1.4676 1.21669 1.22041 1.24415 1.23966 1.29406 1.50039 1.27889 
1.36597 1.5295 1.88122 1.47197 1.64401 0.659974 1.57806 0.61053 1.75865 
0.72936 1.1676 0.732285 1.54173 1.15847 1.38728 1.23185 1.50972 1.98168 
1.99286 1.31735 1.60611 1.48486 1.49347 1.63137 1.18363 1.50889 1.23682 
1.63762 1.30941 1.48717 1.50249 1.45103 1.26862 1.55278 1.19772 1.49081 
1.34831 0.940502 0.928182 1.03044 0.865682 1.04398 1.02029 0.997471 0.91613 
0.994184 0.937671 0.985923 0.975908 1.08735 0.894417 1.05942 0.940917 1.9552 
1.45406 1.46142 2.10405 2.05289 1.42884 1.89247 1.55458 1.01483 1.0744 
0.908399 1.03702 0.947517 0.988231 0.954388 1.05123 1.0737 0.868942 1.07711 
0.860191 1.07832 1.03796 1.11249 0.872023 0.920013 1.07502 0.942312 1.00989 
0.866482 1.01573 0.900081 1.03793 1.01525 0.802879 1.09426 0.783172 1.11265 
0.761085 1.08278 0.779915 1.94824 1.94262 2.02673 1.66315 1.52792 1.4078 
2.03517 1.95442 1.17922 0.763805 1.14268 0.785232 1.07526 0.889177 1.17769 
0.760505 1.00599 0.830711 1.05235 0.901107 1.1046 0.807804 1.02848 0.838571 
1.4991 1.34954 1.50148 1.22709 1.43734 1.60577 1.45572 1.5526 1.12185 
0.855565 1.18991 1.08242 1.16782 1.10169 1.08659 1.05139 1.69462 1.75933 
1.25585 1.15775 1.73716 1.27461 1.48763 1.3057 1.50054 1.5329 1.42181 
1.26817 1.36796 1.30394 1.46829 1.43735 1.54346 1.17197 1.88595 1.63283 
1.31062 1.35791 1.74229 1.45864 1.11629 0.904218 1.10647 0.988805 1.22333 
0.76122 1.15101 0.892725 1.34504 1.20684 1.42061 1.50827 2.12516 1.60241 
1.76065 1.30949 1.42871 1.14006 1.53101 1.3238 1.44707 1.33419 1.49659 
1.28472 1.51737 1.86837 1.50593 1.92759 1.39922 2.08477 1.39783 1.93011 
0.91467 1.02396 0.902808 1.08872 1.0346 1.12357 0.909867 1.05217 1.43831 
1.50746 1.90769 2.18387 1.2829 2.51275 1.72946 2.1735 1.0927 1.42575 
1.3381 2.04113 1.42734 1.85595 1.37244 1.91876 1.70881 2.05602 1.55767 
1.74766 1.48399 1.9054 1.41607 1.66443 1.33537 1.18166 0.868651 1.39188 
2.90478 1.40348 1.34246 1.4437 1.48148 2.24279 1.24874 1.43885 1.90295 
1.74361 1.72231 1.91704 1.66216 1.89532 1.59896 2.80869 1.93228 2.31375 
1.58991 2.42147 2.13456 2.65608 4.18747 2.01107 2.02763 1.56237 2.10064 
2.23374 1.72917 1.8561 2.76338 2.30403 1.98947 1.63987 2.22535 1.73747 
1.05756 0.938468 1.12052 0.860643 1.05726 0.909081 1.09138 0.890949 2.42167 
2.97579 1.79961 2.08089 1.86279 2.00091 2.04199 2.28922 1.07028 0.965617 
1.15509 0.993822 1.19113 1.02441 1.1286 1.04438 0.998593 0.99875 1.07318 
0.959797 1.26024 0.85751 1.07763 0.933716 0.701357 1.21002 0.689131 1.13268 
0.669938 1.02465 0.694502 1.06695 1.55792 1.76301 1.47791 2.174 2.00296 
1.83668 1.64481 1.8123 2.07321 2.04657 2.49631 1.97881 2.41495 3.09964 
2.57829 2.44067 2.66987 2.15284 2.10065 2.02342 1.9119 1.74422 2.0387 
1.72674 2.69017 1.96349 1.97583 2.85736 2.09276 1.82599 2.48981 2.16959 
2.44279 3.41578 2.90408 2.17693 1.94022 1.8055 2.3964 2.86458 1.8131 
1.73346 2.64264 2.10753 2.18724 2.96127 2.5245 2.33362 1.88781 2.48899 
1.83202 1.96516 1.9788 1.83444 1.80667 2.15323 3.01925 2.18506 1.77751 
1.54926 2.38292 2.56563 2.47279 2.34235 1.78476 1.52304 2.88455 2.22889 
1.8676 1.35185 1.96957 1.37499 2.56954 2.79501 1.89272 1.86642 2.58779 
2.48513 2.57001 2.545 1.8331 1.82905 2.52071 2.68647 1.84985 1.78494 
1.82609 1.87454 2.54303 2.50528 1.8949 1.8062 1.81652 1.72767 1.88952 
1.79277 2.24588 2.42012 2.15884 2.08113 2.12135 1.96768 2.07654 2.09279 
1.22597 1.10258 1.19661 1.02995 1.1565 0.999007 1.10874 1.0718 2.43952 
1.97066 1.98904 1.89581 1.92667 2.44941 2.02229 2.11977 1.23578 1.25734 
1.20728 1.06955 1.18961 0.963134 1.22382 1.0657 3.25973 1.73327 1.87423 
2.38169 2.08891 1.6122 3.03908 1.91298 1.76501 1.78001 1.44334 1.73789 
1.69638 1.73868 1.70207 1.79503 1.04114 0.924267 1.08098 0.884551 1.14819 
0.78463 1.06091 0.902313 0.676414 0.852136 0.675181 0.964509 0.763471 0.962376 
0.733278 0.893619 2.50091 2.42974 2.54479 2.84586 2.29557 2.18777 2.53661 
2.46023 1.09244 0.904875 0.979239 0.91197 1.01854 0.978989 0.987781 0.958233 
1.10231 0.911343 1.18921 0.834659 0.984717 0.905175 1.12598 0.864872 1.69304 
1.56696 1.79324 1.74171 1.98364 1.39166 1.81662 1.51488 1.03077 0.898184 
1.0132 0.872115 1.20762 0.816623 1.02349 0.884876 1.19973 0.830077 0.991306 
0.949393 1.03329 0.936937 1.0873 0.895261 1.08333 1.78516 1.02961 1.6533 
1.07437 1.83671 1.05131 1.6618 1.0599 0.908546 1.318 0.73338 1.05562 
0.925987 1.2234 0.781722 1.467 1.20835 1.6121 1.49631 1.62304 1.53723 
1.54289 1.44453 1.33967 0.701271 1.00384 0.938245 1.02472 0.91373 1.11677 
0.86337 0.959168 1.02945 1.12311 0.95872 1.13971 1.01748 1.05949 0.992302 
1.35866 1.38607 1.41954 1.20623 1.57077 1.53366 1.43923 1.32011 1.30869 
0.754768 1.04252 0.914649 1.11597 0.864567 1.16209 0.823133 0.917583 1.0205 
1.1043 0.881234 0.900844 1.05239 0.949574 0.995503 0.855336 0.866461 0.933044 
0.987627 0.991219 0.903319 0.945481 0.952828 0.951757 0.988051 0.88975 0.926979 
0.970483 0.951654 0.903224 0.953053 1.05394 0.846473 0.827159 0.942107 0.911033 
0.838951 0.977178 0.886218 1.13215 1.43697 1.17934 1.23778 1.24355 1.58097 
1.16327 1.40375 0.839659 0.824765 1.00671 0.865658 0.843709 0.782651 0.851961 
0.79331 0.83527 0.94233 1.03333 0.80149 0.875862 0.854911 0.918269 0.853033 
0.77995 1.70069 0.817676 1.42709 0.956897 1.49161 0.784773 1.58423 1.19654 
0.76993 0.938018 1.09829 1.00118 0.922058 1.07917 0.843535 1.81679 1.83514 
1.58496 1.6777 1.46411 1.73977 1.56777 1.70779 0.920112 1.14233 1.07615 
1.18318 1.00555 0.972026 1.00034 1.14099 1.10103 1.30177 0.851157 1.32316 
0.84442 1.57168 0.893094 1.37842 1.20271 1.35385 0.909719 1.62672 1.29796 
1.52644 1.16294 1.51702 1.02486 0.898501 1.11216 0.820254 1.12193 0.863457 
1.03682 0.913262 2.62575 2.07593 2.15725 2.33496 2.06058 1.91776 2.54225 
2.15895 1.05357 0.824169 0.961027 0.872035 0.90932 0.864196 0.986628 0.824774 
2.57606 2.30318 2.28833 2.03405 2.37272 2.41171 2.43166 2.34032 1.85797 
1.8112 1.71598 1.65462 1.87488 1.85621 1.82716 1.79568 1.00557 0.972978 
1.274 0.81942 1.17861 0.898361 1.18942 0.904389 1.14476 1.81149 1.14768 
1.58372 1.46553 1.60472 1.14214 1.76781 3.25849 3.17989 2.15318 1.93634 
3.23841 2.3197 3.06022 2.47201 2.27241 2.05004 2.34725 2.03063 2.56473 
2.44541 2.32855 2.21811 2.42511 1.97703 3.30664 1.96366 2.66983 1.86434 
2.76371 1.81958 2.56928 2.06867 2.73295 1.9006 3.12276 1.9456 2.97846 
1.96385 3.03046 2.02379 1.99224 1.62369 2.47413 2.03486 2.21612 1.71781 
2.35172 1.59998 2.4027 1.37478 2.1018 1.38144 2.3289 1.40947 3.15596 
2.53534 2.54058 1.38046 2.50513 1.66178 2.63004 1.59453 1.31239 1.28641 
1.51288 1.66416 1.41056 1.39003 1.39128 1.45834 1.62153 1.60643 2.0847 
1.21359 3.31719 2.99912 1.91879 1.39678 1.8137 1.62889 2.02356 1.43767 
2.26117 1.3283 1.95072 1.4151 4.11251 3.45567 2.39501 1.36531 3.78081 
3.04538 3.50962 2.74418 1.67596 1.59061 3.64061 3.486 2.79431 2.82923 
2.58143 2.52444 0.931129 1.02384 0.820039 0.98297 0.58766 1.53899 0.904941 
0.997658 3.34863 2.66273 2.85921 1.85515 2.94699 2.33536 2.91301 2.34326 
0.987384 0.847799 0.957866 0.892029 0.956156 0.885805 0.947599 0.872776 1.90224 
1.7637 1.48561 2.14992 1.99473 1.49563 1.8181 1.77846 1.48789 2.99225 
1.71809 2.23812 1.38074 2.02974 1.54246 2.43368 3.03959 1.88342 2.29218 
1.93265 2.71645 2.37539 2.80707 2.21163 1.05176 0.892626 1.0442 0.885534 
1.27635 0.707787 1.14219 0.826829 1.35093 1.66782 1.14938 1.92215 1.49441 
1.77477 1.26596 1.76006 1.75862 3.33292 1.60625 1.99271 1.91231 2.32977 
1.60702 2.61561 1.14094 1.90432 1.20583 1.72402 0.92315 1.8995 0.981338 
1.81373 1.51734 2.42122 2.48872 2.78487 2.47232 2.91666 2.18369 2.60372 
1.67819 1.39403 2.0467 1.49008 1.9871 1.30003 1.9566 1.40245 1.63585 
2.25269 2.75085 3.0861 1.72013 2.11101 1.83106 2.38336 2.93934 3.2342 
1.52788 2.17376 2.54906 2.89968 2.24232 2.73187 1.03539 0.956229 0.981277 
0.932492 0.934501 0.991143 0.991081 0.933066 1.65116 2.18992 2.90515 3.28332 
2.28249 2.66811 2.34998 2.64888 2.64872 1.93439 1.8498 1.63824 2.57227 
2.20648 2.10351 1.88207 1.5718 2.04796 1.24991 2.03427 1.29093 2.18241 
1.30615 2.01714 1.38512 2.38253 2.06891 2.27499 1.48409 2.33291 1.51424 
2.39914 0.876758 1.03575 1.04245 0.896956 1.06557 0.922167 0.94132 0.9973 
0.731933 1.54334 0.692021 1.22869 0.798436 1.28286 0.749195 1.31306 1.00365 
1.28111 1.0198 1.39758 0.862328 1.34628 0.959389 1.34031 3.10382 3.44298 
2.62464 2.66966 1.9616 1.97491 2.7431 3.02673 1.33875 1.57234 1.62406 
1.74581 1.3839 1.68272 1.36937 1.63191 1.06347 0.796635 1.00527 0.806048 
1.10589 0.770514 1.066 0.787219 1.04579 1.51762 1.02151 1.66491 0.821947 
1.7937 0.989798 1.71266 2.57421 1.34671 1.0765 1.43974 1.57517 1.07764 
1.8906 1.13027 1.00033 0.920333 1.30281 0.678777 1.0617 0.850542 1.1724 
0.747114 1.13287 0.611281 1.56812 0.772447 0.861516 1.19916 1.37335 0.849275 
1.12234 1.46608 0.832805 1.64731 1.72981 1.35576 1.29358 1.39507 0.916342 
1.46557 0.837883 1.2397 0.803127 1.55203 0.790351 1.50066 0.808162 1.24604 
1.29007 1.06099 1.00001 0.819914 1.08002 1.03537 1.36633 0.925321 1.22887 
1.11198 1.14089 0.996854 1.25865 0.978309 1.08227 0.903977 1.15104 0.895447 
1.21308 0.941638 1.14521 0.899097 1.2712 1.2421 1.47699 1.5122 1.35367 
1.18777 1.28056 1.34523 0.980128 1.11992 1.07768 0.9911 1.08087 1.09914 
1.01727 1.08988 1.39381 1.07047 1.27454 0.978238 1.15496 1.03623 1.17794 
1.02765 1.27922 1.00076 1.24977 0.982741 1.2313 1.05504 1.17617 0.960509 
1.88455 0.783324 1.5758 1.00793 1.62746 0.980647 1.82818 1.10393 1.85847 
1.21284 1.94955 1.34154 1.86079 1.16066 1.89671 1.24156 1.80568 1.27267 
1.89937 1.39406 1.82338 1.15066 1.86092 1.23999 1.59534 1.15218 1.72764 
1.06242 1.71452 1.28778 1.63995 1.17321 0.980565 0.828093 0.981768 0.86752 
0.970059 0.828579 0.982658 0.823579 1.0339 0.882211 0.983956 0.824934 0.991042 
0.869886 0.998515 0.873796 1.30869 0.900316 1.16635 0.826018 1.27223 0.732988 
1.31582 0.823393 1.36872 0.941896 1.56973 0.907635 1.5484 1.04311 1.48428 
0.955194 1.71255 1.37807 1.68667 1.25173 1.52677 1.37405 1.70379 1.36632 
1.1966 1.01419 1.14896 1.03999 1.41915 1.00924 1.30955 0.96897 1.86322 
1.58733 2.0341 1.67325 1.38623 1.81072 1.76269 1.83587 2.46859 0.927102 
2.02304 0.58339 3.5387 0.516802 2.73989 0.615683 1.63783 1.62606 1.60947 
1.6591 1.34909 1.52935 1.55213 1.64861 1.33273 1.02077 1.26315 1.21828 
1.21284 0.939297 1.2665 1.07633 1.20743 0.796398 1.40262 0.843782 1.22859 