# vtk DataFile Version 3.0
vtk output
ASCII
DATASET POLYDATA
FIELD FieldData 2
Radius 1 853 float
1.78485 1.59625 1.42552 1.37801 1.43754 1.53056 1.56438 1.54708 1.56934 
1.6755 1.85732 1.99975 1.94698 1.75871 1.7102 1.81819 1.87362 1.75229 
1.57261 1.28581 0.995318 0.730222 0.56924 0.435853 0.407464 0.603158 0.777384 
1.0103 1.40728 1.75878 1.97205 2.01901 1.9305 1.80422 1.62561 1.40068 
1.17449 0.929873 0.709424 0.595062 0.561263 0.546085 0.584858 0.664904 0.72787 
0.774381 0.78828 0.802853 0.814045 0.828727 0.853054 0.894544 0.946331 1.03241 
1.18203 1.38003 1.53807 1.63311 1.73741 1.82108 2.3309 2.18812 2.24303 
2.03189 2.09782 2.0599 2.32769 2.23742 2.39351 2.29593 2.51181 2.44856 
2.49411 2.4389 2.76673 2.70857 2.93118 2.88942 2.92427 2.74406 2.90066 
3.03975 3.20281 3.02239 2.87486 2.73815 2.39067 2.0268 1.5726 1.42796 
1.12583 0.959058 0.847605 0.872091 0.931211 1.10276 1.37058 1.58435 1.92422 
2.37637 2.82208 3.075 3.25282 3.1873 3.06016 2.97228 2.77814 2.57885 
2.28693 2.06649 1.76537 1.5435 1.30418 1.20339 1.11562 1.17372 1.16224 
1.1899 1.10638 1.20708 1.22503 1.28647 1.24884 1.2549 1.2236 1.23881 
1.22631 1.21196 1.17046 1.25028 1.1831 1.22231 1.43257 1.59312 1.82309 
1.87192 2.0051 2.00687 2.2159 2.21216 1.50159 1.45016 1.77853 1.54691 
1.65362 2.02037 1.61435 1.82039 2.20047 1.64641 2.50397 2.38726 1.63492 
1.66635 1.21298 1.89137 1.70551 1.94745 1.71993 1.33793 1.27241 2.73569 
2.55709 2.51818 3.54872 3.84268 1.60573 2.32944 2.50309 0.932607 1.91652 
1.74069 2.88855 3.23632 3.54097 3.76849 2.94218 1.45727 2.90696 3.77396 
3.92449 2.06037 2.34299 3.43542 1.63566 2.66131 2.3687 4.03604 3.81641 
3.44488 3.30139 2.1943 2.16077 2.20736 1.90654 2.55731 3.81686 3.21079 
3.14262 4.06578 2.3602 4.33193 3.89422 2.4126 2.23921 3.84602 4.26843 
3.65911 4.22432 3.00055 3.13915 3.53916 3.54178 3.81654 3.96516 2.83165 
2.94113 3.56339 3.61666 3.1043 2.92691 4.17065 2.59126 3.98317 4.04124 
1.91239 2.21939 2.69389 4.21617 2.50712 3.07753 2.71695 1.8323 2.22761 
1.96177 3.11992 2.50838 2.45449 1.82122 2.47297 1.86505 1.66476 1.46539 
1.26242 2.7773 2.32063 2.20932 1.70364 2.22838 3.6035 3.52737 2.37041 
2.98977 3.50309 3.55758 1.75714 3.01141 3.44762 3.3615 3.55996 3.92472 
1.7414 1.58543 1.13785 2.73895 2.21077 2.56831 1.5168 1.40084 1.27533 
1.3785 1.78806 2.21744 1.92539 1.23593 0.862886 2.28453 1.67511 2.39763 
2.93395 3.7101 3.36934 2.10058 2.3507 2.55371 2.791 2.63688 2.65312 
2.41787 2.92354 2.74817 1.42971 2.02393 1.91601 1.68477 3.11565 3.20706 
3.33863 3.73789 3.26571 3.31861 3.19044 3.07028 2.98619 1.99564 2.49262 
2.40931 2.57441 2.79521 3.01539 2.37767 2.83933 2.2736 1.86313 2.40432 
2.34606 1.95499 3.07471 2.62895 2.75616 2.12052 2.13523 1.75594 2.40898 
2.42162 2.50367 2.39406 2.00069 2.4392 1.61193 2.0649 3.15088 3.11092 
2.76213 2.32062 2.37242 2.06505 2.55135 2.52111 2.39402 2.89405 3.83608 
3.93406 3.70065 2.8746 3.40729 2.79361 3.41064 3.38422 3.30503 2.40479 
2.85828 2.14845 2.45938 2.75171 2.65089 3.08086 1.43405 1.72605 1.71011 
2.4107 1.92921 1.96278 2.86408 2.80297 3.02201 3.06139 2.70782 3.12173 
3.40623 3.49135 3.63047 3.77016 1.94537 2.46303 3.84761 3.48683 1.31613 
0.915997 1.05929 0.82217 1.05148 1.33193 1.16163 0.910716 0.655383 0.73685 
0.500902 1.03864 0.638235 0.997607 0.896351 0.763683 1.12382 1.09244 1.21448 
1.26934 0.621576 0.393938 1.03655 0.826328 1.04476 1.24559 1.50514 0.69391 
0.888608 0.71161 0.502699 0.80769 1.02158 0.694571 0.910065 1.03101 1.24152 
1.06383 2.34672 2.41768 2.28617 1.61598 1.44315 1.64463 1.08358 1.1995 
0.86993 1.13972 1.26225 1.49813 1.4494 1.71407 1.55561 2.00289 1.82381 
1.85797 1.21128 1.74374 1.23016 1.53923 1.36782 1.50338 2.45163 2.45221 
1.45116 1.42129 1.67489 1.39634 2.52248 3.47624 3.8141 1.87448 2.59969 
2.63303 3.11162 2.1094 2.63358 2.37147 3.2288 3.55634 3.58476 2.19321 
1.5082 1.29413 1.64349 1.61549 1.50513 1.36222 1.30758 1.19617 1.42498 
1.36759 1.23588 1.05455 1.72229 4.05566 4.07284 4.13809 1.22657 1.39522 
2.39666 2.19444 2.6054 2.16448 1.90345 2.04714 1.78969 1.88911 1.74874 
1.97295 1.595 1.88629 2.53732 2.14553 2.86891 2.70277 1.97945 3.14596 
2.70266 2.01601 2.63846 1.60947 1.72621 2.97768 1.73637 1.62613 1.69356 
3.6225 3.73402 3.48989 1.27207 1.42986 1.46954 1.56535 1.50923 3.03772 
3.10371 2.88556 3.07689 3.48605 1.47443 1.26728 0.803558 1.13705 3.18975 
2.94769 2.15956 2.46711 2.02422 1.54872 2.81565 2.75809 2.92683 1.95535 
2.3941 1.98874 1.56152 1.90569 1.57265 1.6188 2.02374 1.94777 1.55388 
2.56276 2.54253 2.30916 1.49286 1.92724 1.89374 2.33056 2.3528 2.34084 
2.48379 2.18214 2.80658 2.6875 2.65206 0.971714 0.942038 1.23565 1.73986 
1.39442 1.49054 1.08014 0.642023 0.803786 1.37178 1.27166 1.58838 2.01911 
1.45503 1.13752 1.94282 1.81119 2.3828 2.51885 0.565642 1.77663 2.63558 
2.62148 0.890852 1.77798 1.39578 2.73443 1.78983 1.69768 1.38657 1.78985 
2.16125 1.72061 1.82181 1.49375 2.07775 1.91939 2.20142 1.98923 2.0102 
2.07481 2.2771 1.71301 1.18367 1.52474 1.52268 1.81909 2.13675 2.23382 
2.14708 2.10496 2.01386 1.80716 2.39481 2.06485 1.79351 2.02491 2.32442 
2.23009 2.05663 2.10637 1.90445 2.29068 2.24036 1.83963 2.01806 1.84934 
1.68063 1.75695 1.94707 1.82364 1.58758 1.47473 1.69969 2.10992 2.12155 
2.05795 2.3053 2.55327 2.57691 2.14017 1.67969 1.89215 2.09738 2.02156 
1.81702 1.79119 1.93103 1.97271 1.85752 0.55102 0.888379 0.872546 1.84197 
0.888671 0.554416 0.95785 1.15919 1.60318 1.44404 0.897891 1.13844 2.32097 
2.38004 0.963238 0.922518 1.17324 1.47792 2.24991 2.11434 0.625674 1.46316 
1.23743 1.02201 0.996489 0.69999 1.08899 1.0413 1.26486 1.65031 0.751059 
1.05316 1.45956 1.4047 1.2557 1.04505 1.06108 1.93998 0.796408 1.04664 
1.04951 1.05378 0.808174 1.67934 1.45158 1.42511 0.781331 1.91602 2.2369 
1.96261 1.53842 1.71439 1.69219 1.83281 1.52605 1.69208 1.42365 1.3216 
1.27378 1.36834 1.32532 1.22816 1.13815 1.08082 1.06282 1.21186 1.33036 
0.981976 0.919722 1.05762 1.10007 1.48888 1.373 1.35789 1.05059 1.08951 
1.33282 0.820409 1.0469 1.02775 1.2513 1.12337 1.04126 1.21387 1.22189 
1.03204 1.04324 0.870796 1.41945 0.838974 2.0789 2.17329 1.68103 2.58713 
2.36902 2.29673 2.42663 2.70461 2.21348 2.26044 2.90553 2.03209 3.48537 
3.53222 3.84369 4.00282 4.19183 2.77137 2.92631 1.66613 2.0455 2.90933 
3.52113 3.35904 3.41403 3.84823 3.86765 3.52982 3.94721 3.26787 1.91733 
3.32436 2.37765 3.62164 4.27007 4.33306 4.28274 2.44532 2.11264 1.68616 
3.11856 3.24356 1.91007 1.95591 2.90629 2.7189 2.93414 3.34472 3.90161 
4.12179 3.36778 3.46011 4.11587 4.24243 3.52607 3.2859 3.73921 3.4282 
2.48138 3.12554 3.23689 2.59463 2.30816 1.93025 1.94151 2.19559 2.87626 
2.24341 2.09775 2.78843 2.45474 3.00309 3.83948 4.14049 3.36986 3.77109 
3.18107 2.73667 4.02072 4.182 2.4891 2.05329 4.10748 4.10847 4.02144 
4.06617 3.93009 3.6899 2.41886 2.33894 2.43479 2.4177 4.32957 4.34031 
4.26027 4.26052 3.74231 3.9205 4.10793 4.19075 3.93801 3.54995 3.33881 
2.87047 3.72137 3.66554 3.71032 3.92672 3.90578 4.18357 4.07319 4.11647 
2.67009 2.52337 3.0612 2.70397 3.98889 3.98895 2.78882 
Rho 1 853 float
-0.0390998 -0.0182189 0.0096156 0.0111361 -0.0283223 -0.0876765 -0.10184 -0.0715189 -0.0288717 
0.0591137 0.230705 0.388077 0.396381 0.254587 0.0895251 0.0572371 0.226369 0.508774 
0.609138 0.424239 0.0653989 -0.253829 -0.334157 -0.272682 -0.396263 -0.738916 -0.817464 
-0.58286 -0.2862 -0.0833268 0.0450341 0.0506226 -0.185831 -0.444189 -0.376582 -0.204371 
-0.264632 -0.364167 -0.29888 -0.24092 -0.280416 -0.317064 -0.335712 -0.340691 -0.321254 
-0.285346 -0.291638 -0.394365 -0.535381 -0.658316 -0.733124 -0.779058 -0.840939 -0.816435 
-0.7278 -0.618713 -0.531145 -0.41251 -0.245128 -0.0983271 -0.111423 -0.0619242 -0.06274 
-0.0162839 0.00602395 0.00979773 -0.000655488 -0.0438008 -0.0593318 -0.0680575 -0.0373371 -0.0303275 
0.0160837 0.11059 0.209559 0.325281 0.369786 0.318035 0.224836 0.14323 0.0666476 
0.0912987 0.1745 0.331118 0.481489 0.490562 0.435943 0.181179 -0.0884063 -0.221273 
-0.307772 -0.26425 -0.199257 -0.293423 -0.560876 -0.743851 -0.652767 -0.53277 -0.384245 
-0.219152 -0.0817735 0.043413 0.0930844 -0.0125889 -0.25971 -0.429708 -0.341548 -0.18994 
-0.142456 -0.229859 -0.335851 -0.279837 -0.19062 -0.157011 -0.218583 -0.255068 -0.295111 
-0.331753 -0.349086 -0.350208 -0.324586 -0.311829 -0.286537 -0.340881 -0.448848 -0.548535 
-0.620265 -0.65518 -0.705719 -0.702731 -0.781138 -0.795931 -0.710262 -0.640871 -0.557771 
-0.540607 -0.459679 -0.357316 -0.276 -0.171375 -0.638971 -0.588546 -0.524027 -0.507905 
-0.473291 -0.452106 -0.406985 -0.408743 -0.374695 -0.345135 -0.178792 -0.270198 -0.34881 
-0.363285 -0.155423 -0.0358267 -0.116446 -0.381579 -0.273251 -0.168763 -0.410884 0.0232638 
0.0060293 -0.0853368 0.226893 0.137535 -0.3382 -0.16261 -0.474682 -0.220137 -0.067249 
-0.371812 0.00858258 0.0837983 -0.115979 -0.197006 -0.00544481 -0.112445 -0.0978257 0.236263 
0.139949 -0.371332 -0.237818 -0.296311 -0.161147 0.0519994 -0.305918 0.101965 0.0840853 
0.173117 -0.141232 0.0124741 -0.337056 -0.175439 -0.12001 -0.00358398 -0.0140582 -0.0355328 
-0.0543231 -0.0624234 -0.0162972 0.0555128 0.0962394 -0.0638171 -0.167401 0.11899 0.112877 
0.113972 0.102041 0.245423 -0.10185 -0.14492 0.241185 0.0375506 0.0174359 -0.256086 
-0.293804 0.0425331 0.0558304 -0.000876457 -0.0172631 0.0994576 0.0580505 0.143169 0.0654095 
-0.164265 -0.255797 -0.231973 -0.0198411 0.131777 0.134941 0.200532 -0.288974 -0.239934 
-0.304924 0.238518 0.308454 0.431366 0.381856 0.0721563 0.111698 -0.34966 -0.361672 
-0.360419 0.0958451 0.0676768 0.117762 0.15909 0.186096 0.17432 0.230857 0.0500396 
0.064936 0.0819809 0.0877664 0.0522657 -0.369797 -0.244687 -0.335293 0.137232 0.132147 
0.318632 0.143805 0.252389 -0.470069 -0.485844 -0.454512 -0.127083 -0.155829 -0.13505 
-0.0263338 0.0313676 0.324186 0.465627 -0.164829 -0.107565 0.581808 0.591436 0.530094 
0.421244 0.187992 0.30062 0.557232 0.57398 0.493481 0.503255 -0.292698 -0.234088 
-0.283065 0.378321 0.348674 0.550223 -0.27197 -0.23465 -0.317815 0.0802001 0.213927 
[...]
CELL_DATA 3168
FIELD FieldData 1
Jacobian 1 3168 float
1.54388 1.32734 1.12933 1.29834 0.973578 1.54826 1.09537 1.43631 1.1794 
0.909308 1.38078 1.14178 1.32833 1.04921 1.24168 0.987216 1.20788 1.48402 
1.21766 1.32179 1.71338 1.24965 1.44772 1.36393 1.14133 1.40799 1.13456 
1.5564 1.22541 1.52722 1.17886 1.43839 0.92169 1.41778 0.929936 1.36176 
0.883583 1.57557 0.935523 1.45681 1.02696 1.01361 0.938399 0.806331 1.3137 
1.05238 1.12955 0.940931 0.891009 1.24631 0.672195 1.15354 0.826862 1.27134 
0.708836 1.26972 0.713212 1.16497 0.88246 1.3001 0.810329 1.1701 0.799777 
1.1609 1.5216 1.50327 2.06405 1.16174 1.86518 1.23354 1.69754 1.26999 
0.875316 1.68184 0.956096 1.36426 0.869095 1.32233 0.871583 1.43914 1.47248 
1.39969 1.19853 1.62145 1.19958 1.33154 1.15749 1.45796 0.829635 1.34006 
0.960575 1.31312 0.925144 1.30536 0.975585 1.27365 1.44103 0.634634 1.60287 
0.642459 1.3245 0.719183 1.58943 0.691452 2.06152 1.13999 1.99876 1.09674 
2.12092 1.12722 2.15439 1.07741 0.984326 1.24628 0.973125 1.30002 0.793139 
1.65322 0.823279 1.3855 1.35688 0.971843 2.02089 1.02362 1.79388 1.07021 
1.90821 1.06259 0.506299 1.22408 0.694107 1.05563 0.786879 0.890366 0.629452 
1.02953 0.688849 1.61987 0.716725 1.43845 0.897997 1.27698 0.850462 1.46652 
0.906258 1.34008 1.35706 1.38053 0.708089 1.65731 0.911964 1.61843 1.01218 
1.1863 0.957946 1.24167 1.00737 1.07653 0.972467 1.13686 1.28802 1.50406 
1.3592 1.49048 1.35134 1.4984 1.37511 1.42886 1.41972 1.44583 1.29163 
1.50032 1.18367 1.58709 1.20753 1.60678 1.50373 1.67431 1.76849 1.51791 
2.01431 1.35412 1.74495 1.63418 1.38654 1.94993 1.51954 1.35645 1.29375 
1.48542 1.5146 1.64853 1.51827 1.38966 1.43695 2.17964 1.42902 1.5619 
1.41652 1.82739 2.09021 0.485591 1.13918 0.632984 1.73412 0.520624 1.74324 
0.426412 1.57918 1.44756 1.41164 1.91992 1.38506 1.82178 1.45486 1.69988 
1.32159 1.28555 1.31343 1.50828 1.08451 1.29725 1.18492 1.26092 0.974218 
1.02775 1.21828 0.961533 1.02031 0.888697 1.04189 0.924647 1.31466 1.64184 
1.30189 1.17792 1.13423 1.88059 1.32284 1.50444 1.15388 1.23037 1.54632 
1.2496 1.58257 1.18073 1.43632 1.29804 1.44828 0.929824 1.34723 1.00412 
1.51468 1.06049 1.41123 0.981216 0.955414 1.64457 0.961825 1.43067 0.98681 
1.39383 1.0222 1.49199 1.50196 1.14266 1.44157 1.17006 1.3138 1.07194 
1.4443 1.15362 0.774854 1.39705 0.966171 1.6911 1.03734 1.44667 0.868 
1.48731 0.834199 1.41622 0.984292 1.45418 0.858834 1.40129 0.917516 1.42784 
1.12296 1.44506 1.02096 1.19519 0.948157 1.38179 1.04545 1.35863 1.15265 
1.08468 1.19857 0.990282 1.13608 0.985569 1.12783 1.01217 1.02086 1.21511 
0.962281 1.11537 1.54302 1.46097 1.18449 1.20099 1.54292 1.94338 1.46839 
1.64155 1.51599 2.41427 1.44221 2.16009 0.87284 0.824734 1.15324 1.05479 
1.43569 1.24888 1.10255 1.04473 1.12137 0.934346 1.82866 1.47812 0.984928 
0.955456 1.21357 1.10462 1.36618 1.38243 1.13352 1.29967 1.15351 1.30927 
1.15237 1.27753 1.35123 1.65419 1.70371 1.41832 1.62468 1.54633 1.44328 
1.54111 1.47889 2.10813 1.39736 1.814 1.37061 1.54366 1.3341 1.53647 
1.03504 1.2134 1.72169 1.48061 1.17474 1.5155 1.46686 1.49834 1.10819 
1.34705 1.13138 1.19555 1.1833 1.32737 1.08601 1.27538 1.68627 1.09952 
1.81964 1.28787 1.36367 1.00456 1.78762 1.13989 1.77998 1.46073 1.66665 
1.45544 1.69398 1.35588 1.71323 1.48284 0.857281 1.47166 1.02281 1.4688 
0.845509 1.40524 0.829607 1.44257 1.26324 1.22537 1.68731 1.05161 1.68805 
1.15176 1.41193 1.07976 1.28751 1.52554 1.64368 1.4402 1.42553 1.471 
1.42806 1.39768 1.38833 1.55922 1.32216 1.69354 1.1395 1.55739 1.19019 
1.60684 0.899158 1.11281 1.11904 0.966021 0.742418 0.900737 0.879266 1.0191 
1.01944 0.95751 1.14704 1.02052 0.918013 0.938878 1.10342 1.06189 1.12951 
0.922883 1.17282 0.918482 1.12184 0.845849 1.15291 0.885161 1.41087 1.47661 
1.61987 1.40182 1.49628 1.37621 1.70252 1.55885 1.31486 1.2304 0.863416 
0.945508 0.927001 1.03892 0.898251 0.902887 1.13164 0.935599 1.13969 0.875914 
1.21933 0.982662 1.13896 0.903196 1.03022 1.21158 1.01116 1.18392 1.26814 
1.35726 1.0743 1.20457 1.4983 1.19067 1.42346 1.09885 1.45107 1.13864 
1.45537 1.08976 1.33033 0.966934 1.0867 0.991057 1.05538 1.20437 1.12833 
1.05675 1.60382 1.25456 1.5741 1.46988 1.54957 1.31021 1.66175 1.33024 
1.48691 1.19214 1.49674 1.09725 1.30125 1.04669 1.46003 1.15215 1.35311 
1.39812 1.13889 1.2535 1.19879 1.08369 1.33451 1.31065 0.834276 1.14368 
1.32227 1.01585 0.847892 1.14299 1.07308 1.10578 1.48353 1.33852 1.75228 
1.32579 1.76253 1.27068 1.69877 1.43363 1.04413 1.22447 1.14328 1.2247 
1.40627 1.18308 1.2986 1.30782 0.732069 1.20544 0.96753 1.079 0.894393 
1.14417 0.822745 1.18627 0.987467 0.886077 1.07401 0.83498 1.00648 0.930949 
0.986402 0.907011 1.00606 1.14027 0.727071 1.1695 0.750808 1.03469 0.761139 
1.10007 0.79455 1.1791 1.0572 1.18622 1.05652 1.18653 0.992121 1.16625 
1.03073 1.14977 0.961445 1.09791 0.927256 1.2447 0.915851 1.07004 1.159 
0.90975 1.09551 0.708563 1.22248 0.659189 1.15199 0.6762 0.653933 1.14409 
0.681776 1.10397 0.579679 1.2972 0.639267 1.20305 0.945148 1.11124 0.872414 
1.23164 0.922161 1.01185 0.95088 1.14434 1.03242 1.18319 0.760623 1.04667 
1.01481 1.20203 0.970677 1.11074 0.798257 1.00375 0.677165 1.10491 0.903933 
0.929064 0.81123 0.994667 0.642069 1.11312 0.76577 1.0112 0.703599 1.08499 
0.669047 1.09155 0.7497 1.23867 0.688011 1.17805 0.58737 1.3134 0.672201 
1.26244 1.05538 1.15452 1.26151 0.951275 1.14847 0.959372 1.2199 1.08466 
0.995661 1.14159 0.792001 1.00522 0.885016 0.998328 0.83577 1.00159 0.730973 
1.29476 1.02777 1.15356 0.942897 0.943489 0.781785 1.22616 0.807276 1.45303 
1.31515 1.52425 1.194 1.39539 1.1601 1.43585 1.29368 1.48564 0.953068 
1.66019 1.152 1.38461 1.1605 1.45045 0.885019 1.60744 1.25117 1.5044 
0.730957 1.58603 0.864255 1.5537 0.705162 1.00163 0.863073 0.936144 0.619257 
1.15088 0.718058 1.00376 2.12295 3.20777 2.04115 2.66558 1.71824 2.3524 
1.84338 2.67916 0.86298 1.00844 0.79751 1.06459 0.767366 1.04299 0.84771 
1.01284 0.763388 1.09938 0.64563 1.6412 0.55579 1.60039 0.551562 1.67 
0.821042 1.75719 0.966909 0.942241 0.987607 1.23782 0.780565 1.14111 0.982146 
1.1862 0.898499 1.5433 1.64397 1.07107 1.13602 1.37919 1.02411 1.17 
1.30306 1.43501 0.777163 1.735 1.22634 1.45803 1.06478 1.28609 1.13324 
1.44639 1.16061 1.56602 1.13371 1.46047 1.00925 1.53373 1.29864 1.38965 
1.13593 1.20707 0.98817 1.44057 0.811703 1.76612 0.935183 1.34986 0.855447 
1.77081 0.86556 1.73875 0.824623 0.941802 1.00705 0.683211 0.851522 1.22286 
0.791796 0.922352 1.91189 3.12675 1.71161 2.24985 1.84788 2.25393 1.72393 
2.68595 0.497553 1.19212 0.774731 0.845319 0.686104 0.966068 0.582644 1.12568 
0.950573 0.875334 0.924882 0.883427 0.853277 0.941967 0.870887 0.941289 1.56068 
0.877159 1.97945 0.81347 1.21441 0.707739 1.47815 0.749762 1.58884 0.750594 
1.57633 0.896553 1.54825 1.00119 1.44505 0.830383 1.00009 0.823827 1.51306 
0.907443 0.979144 0.850913 1.21374 0.858364 1.79595 1.09645 1.34339 0.851773 
2.06135 0.924064 1.72015 0.889975 1.57049 1.05579 1.11168 0.903073 1.30732 
0.821451 1.49356 0.961948 2.19949 0.768872 2.01082 0.778354 2.1392 1.20741 
2.49098 0.841609 1.04443 1.1764 0.941654 1.01258 0.990167 1.15473 0.909487 
1.12347 1.1937 1.26755 1.20123 1.29831 1.0878 1.21155 1.1986 1.34493 
1.98668 1.69788 1.8701 1.4925 1.85987 1.80024 1.91915 1.78932 1.30514 
1.28598 1.68008 1.2574 1.261 1.52026 1.50569 1.36818 1.68961 2.5979 
1.41979 1.93867 1.12079 2.34147 1.34707 2.17505 1.0533 2.03596 1.03975 
1.54868 1.00465 1.81474 1.02418 1.9194 1.20815 1.27551 1.15118 1.28197 
1.13305 1.07989 1.11581 1.15842 1.06214 0.951011 1.03916 0.852917 1.57744 
0.995296 1.12443 0.859017 2.09537 0.871873 1.97532 1.10173 2.04685 0.981318 
2.19402 0.900372 1.12538 1.86802 1.29331 1.73447 1.12813 2.21511 1.26374 
1.94044 3.15994 0.6006 3.00026 0.927019 2.51817 1.07329 3.05899 0.816441 
0.944177 0.717299 0.732763 0.789615 0.706394 1.21083 0.679603 0.856513 1.38672 
1.7306 1.11442 1.56814 1.26213 1.64603 1.24658 1.72972 2.11155 1.15562 
1.7046 1.20547 2.47044 0.857848 2.32255 0.934611 3.13628 0.972159 2.38875 
1.37892 2.27725 1.29353 2.64704 1.22954 2.16462 0.801427 1.5472 1.17853 
0.836948 1.55747 1.30476 1.25983 2.4182 0.902046 1.84028 1.18736 2.84096 
1.37663 2.19809 1.26005 1.40275 1.02402 1.93598 0.795916 1.2061 0.92362 
1.51317 0.795953 2.33871 0.921085 3.77711 0.678667 3.05456 1.16865 3.23139 
0.93075 3.61355 0.723162 1.94317 1.07935 2.35871 1.29643 2.94043 0.770185 
1.61589 1.88251 1.76752 1.62749 1.58885 1.79936 1.71428 1.65112 4.27049 
0.529696 3.09511 1.01976 3.10998 0.930028 3.51876 0.887036 1.0147 2.10545 
1.43422 1.82634 1.47801 1.96258 1.45232 1.83886 1.77144 0.66511 0.800331 
1.13916 0.898779 0.697584 1.02701 0.935983 2.29024 0.548305 1.72105 0.688278 
1.85882 0.78994 1.88462 0.660343 1.00868 1.12969 0.848113 1.2153 1.24918 
0.748637 0.960869 1.08251 0.97071 2.17583 1.46913 1.97457 0.936265 2.52536 
0.95127 2.42627 2.08873 0.909738 1.63798 0.713197 1.65998 0.732767 1.64681 
0.875801 1.21093 0.844205 1.33129 0.811296 1.17392 0.774697 1.27681 0.783879 
1.12513 0.781379 0.908653 0.933467 1.0007 1.0409 1.05593 0.84838 0.933314 
1.09764 0.916981 1.06538 0.932115 1.07316 0.861833 1.03638 1.16743 0.778312 
1.45279 0.875348 1.53898 0.789678 1.39224 0.80466 1.64027 1.44362 1.37002 
1.3806 1.73737 1.87316 1.72907 1.77836 1.18665 1.21265 1.38435 1.2811 
1.26488 1.34974 1.14943 1.16286 1.42246 0.875193 1.36129 1.06969 1.21973 
1.04281 1.34651 1.0097 1.51322 1.26009 1.49083 1.57018 1.12429 1.10916 
1.36614 1.28556 1.41646 1.30769 1.48398 1.48604 1.93309 1.55578 1.68583 
1.38174 0.915081 0.949667 0.95893 0.90911 0.936228 0.959599 0.920208 0.955688 
1.54126 1.62786 1.45137 1.51885 1.65178 1.64698 1.56887 1.60008 2.07534 
1.36453 1.20911 2.03781 1.40623 1.31748 1.56154 1.45824 1.61056 1.13616 
1.42427 1.3805 1.16959 1.04153 1.32237 1.02742 1.46154 1.42355 1.466 
1.03744 1.62422 1.67678 1.61512 1.46495 0.630653 1.50919 0.59932 1.67855 
0.704494 1.1373 0.715191 1.47662 1.53426 1.24126 1.33391 1.20078 2.57417 
1.48499 1.56749 1.35309 1.27911 1.64355 1.4597 1.22885 1.38094 1.36862 
1.50016 1.41166 1.5761 1.37305 1.46178 1.28085 1.5146 1.21272 1.53645 
1.3206 0.816605 0.932319 0.923979 1.00209 0.907948 0.974904 0.838162 0.9301 
0.958367 0.987902 0.910226 0.951669 0.951839 0.906672 0.968086 0.947423 1.73391 
1.64797 1.05301 2.66225 1.52401 1.92356 1.48936 1.99444 1.01174 1.07984 
0.927382 1.0559 0.910688 1.04226 0.968929 1.05408 1.0284 1.03076 1.09065 
0.916325 1.04207 1.03363 1.10911 0.968957 0.903636 1.06093 0.947171 1.06492 
0.903555 1.02871 0.919036 1.08441 0.973503 0.882217 1.023 0.838048 1.10623 
0.750392 1.02346 0.831219 1.36979 2.3406 2.16199 1.40852 1.36015 1.33132 
1.67456 1.98268 1.21443 0.700984 1.12862 0.762978 1.17328 0.741842 1.22 
0.68704 0.934697 0.948169 0.957498 1.06493 0.987621 0.928261 0.941538 0.969456 
1.42604 1.47446 1.29992 1.43142 1.26719 1.74169 1.303 1.73941 1.12026 
0.786069 1.21759 1.01155 1.06579 0.983504 1.09945 0.980675 1.41184 1.84584 
1.07673 1.0901 1.51903 1.22747 1.25077 1.31638 1.3145 1.66798 1.32371 
1.36708 1.34254 1.36655 1.27756 1.62232 1.62062 1.06559 2.26753 1.37627 
1.37755 1.16482 1.95674 1.16635 1.3082 0.707344 1.23385 0.898717 1.33116 
0.625705 1.29339 0.729164 1.23193 0.960124 1.27183 1.29879 1.80544 1.51127 
1.50373 1.16043 1.43351 1.12095 1.411 1.38344 1.54766 1.21536 1.48535 
1.24235 1.37868 1.68843 1.48116 1.90921 1.30381 2.05298 1.27881 1.86001 
0.896722 1.10618 1.07659 0.949852 0.920112 1.29185 0.891247 1.12564 1.49112 
1.60547 1.97405 2.34451 1.51803 2.66785 1.74572 2.23748 1.031 1.42632 
1.28813 2.01891 1.45154 1.90427 1.33444 1.95134 1.8206 2.21195 1.75188 
2.01295 1.37369 1.87838 1.45925 1.75544 1.12497 1.24969 0.713987 1.52625 
2.44109 1.61082 1.21472 1.54057 1.53062 2.24315 1.27056 1.48086 1.75801 
1.88224 1.68379 1.98878 1.87634 2.1958 1.78772 2.95403 1.94317 2.42539 
1.78536 2.58671 1.80776 3.2574 3.63844 3.34618 1.65558 1.95016 1.75595 
2.61067 1.7301 2.01192 2.64142 2.86229 2.21315 1.99383 2.2752 2.1827 
1.10901 0.768026 1.12277 0.730667 1.10907 0.763183 1.14042 0.713034 2.36163 
3.3886 1.79284 2.16077 1.84439 2.11519 2.02348 2.59622 1.06544 0.880358 
1.03888 1.10079 1.04154 1.17355 1.06872 1.06794 0.899998 0.95654 1.09936 
0.809071 1.15696 0.889226 1.00312 0.889339 0.749951 1.24264 0.819137 1.06611 
0.726638 1.05691 0.774807 1.07794 1.63439 1.946 1.58462 2.25158 1.91074 
2.07478 1.6585 1.99286 2.09813 2.43157 2.02248 2.669 2.48756 3.67376 
2.36615 3.00551 2.25024 2.66285 2.21994 2.39285 2.06305 2.12611 1.9967 
2.15203 2.21455 2.64051 2.43948 2.7136 1.89384 2.21041 2.28759 2.52628 
3.1016 3.03285 2.48643 2.65737 2.11237 2.05414 2.69943 2.8009 1.96391 
1.85825 2.4973 2.21111 2.58293 2.66902 2.59206 2.41187 2.10131 2.40072 
1.79841 1.94858 1.79726 2.12366 1.88119 2.184 3.01749 1.89105 2.02104 
1.33117 2.90918 1.87745 2.85222 1.86063 1.94418 1.51233 2.86338 2.15181 
1.66628 1.58225 1.86624 1.49661 3.06861 2.23016 1.88931 1.51387 3.08494 
1.95941 2.88071 2.0418 1.85337 1.50709 2.94331 2.11171 2.07423 1.61056 
2.04412 1.57482 2.71357 2.04961 1.70447 1.40186 1.52811 1.31993 1.74777 
1.39267 2.65423 2.01322 2.19825 2.00765 2.08251 1.92434 2.1938 1.95452 
1.22415 1.16542 1.12693 1.13764 1.10067 1.15006 1.09756 1.1602 2.32774 
1.98042 1.92187 1.8681 2.18806 2.25336 2.0665 2.02829 1.15342 1.32155 
1.12331 1.11038 1.14777 0.982867 1.15849 1.10044 2.75067 2.71483 1.6193 
2.9702 1.91867 2.21705 2.70273 2.8859 1.75973 1.7251 1.4387 1.66158 
1.65964 1.67311 1.62309 1.79941 1.10738 0.727698 1.18318 0.696474 1.138 
0.7289 1.13334 0.747656 0.830877 0.810696 0.793982 0.95837 0.850363 0.990553 
0.867869 0.889148 2.85485 1.91166 2.39714 2.64377 2.34432 2.04052 2.75778 
2.10469 1.22827 0.745857 1.07658 0.805086 1.13004 0.876151 1.10246 0.847177 
1.21563 0.744226 1.2407 0.697996 1.05824 0.796822 1.199 0.736396 1.5447 
1.7606 1.63922 1.85967 1.63428 1.71445 1.53569 1.79807 1.06385 0.800332 
1.08862 0.775264 1.24713 0.713012 1.0739 0.767021 1.20942 0.726517 0.92122 
0.908013 1.03537 0.849196 1.04507 0.840234 1.03714 1.6084 0.987902 1.63363 
0.989068 1.80655 0.978124 1.60448 1.03868 0.857647 1.38131 0.633834 1.07256 
0.842833 1.24773 0.685017 1.3628 1.46729 1.54503 1.87069 1.47697 1.86316 
1.51309 1.70782 1.42907 0.600038 1.04903 0.868082 1.08565 0.865043 1.18776 
0.775493 0.987974 0.956487 1.13307 0.917796 1.13673 0.978217 1.05513 0.944665 
1.31504 1.47132 1.36059 1.38071 1.50848 1.72056 1.33523 1.48921 1.41885 
0.639713 1.11744 0.862234 1.17186 0.785693 1.24732 0.7463 0.803193 0.976198 
1.0536 0.778357 0.799885 0.982906 0.83425 0.93065 0.82891 0.797549 0.978192 
0.924995 1.03551 0.840838 0.965917 0.890595 0.986613 0.919296 0.867316 0.871146 
0.995741 0.906307 0.911414 0.898743 1.10416 0.786831 0.785936 0.871194 0.936381 
0.846072 1.02214 0.832796 1.04667 1.52894 1.06944 1.30646 1.15154 1.63457 
1.10037 1.41239 0.79471 0.753004 1.02595 0.801994 0.821116 0.729139 0.824481 
0.737395 0.813673 0.843246 1.05621 0.730254 0.897037 0.845796 0.901121 0.779637 
0.715406 1.7177 0.747204 1.47935 0.909246 1.53452 0.72038 1.60203 1.25451 
0.725305 0.869249 1.1031 1.04666 0.968558 1.10746 0.798588 1.74156 1.87323 
1.50645 1.76797 1.41394 1.74148 1.53721 1.69235 0.866294 1.14428 1.10487 
1.21351 1.06124 1.01992 1.00954 1.19703 1.0818 1.29929 0.798985 1.32503 
0.790146 1.52289 0.844547 1.36992 1.16165 1.2849 0.845669 1.51569 1.15372 
1.31067 1.07749 1.38743 1.05828 0.826913 1.08744 0.775321 1.14369 0.811483 
1.03317 0.857475 2.66139 1.84263 2.57162 1.83241 2.05122 1.74336 2.67556 
1.81197 1.08656 0.783082 1.00115 0.893408 0.939971 0.879806 1.03553 0.840963 
3.05696 1.78738 2.49146 1.83397 2.79799 1.98451 2.90889 1.89296 1.68229 
1.91276 1.58461 1.78228 1.7967 1.87673 1.73203 1.87375 0.892978 0.981977 
1.15701 0.887382 1.07533 1.00252 1.04858 1.01109 0.995897 1.94303 1.05938 
1.68788 1.34588 1.80272 1.05556 1.8769 2.9504 3.07791 1.79619 1.63219 
2.89762 2.29082 2.66306 2.35756 2.18828 2.06869 2.42476 1.99638 2.51893 
2.35543 2.1972 2.23743 2.10911 2.09363 2.82546 2.04066 2.28511 1.94275 
2.26978 1.88474 2.19079 1.84472 2.28768 1.82989 2.62709 1.91777 2.59347 
1.89717 2.63856 1.94374 1.58298 1.24709 2.10106 1.71734 1.79707 1.415 
2.16612 1.63079 2.37057 1.33682 2.01372 1.42189 2.11339 1.39459 3.26048 
2.52125 2.45978 1.22656 2.24973 1.55486 2.56867 1.44676 1.45311 1.20082 
1.60019 1.57772 1.60035 1.14537 1.57966 1.21638 1.84643 1.4569 2.27624 
1.09092 3.6451 3.00225 2.0973 1.29023 1.99558 1.62812 2.00808 1.43863 
2.30997 1.28005 2.08879 1.35261 4.6152 3.53613 2.51439 1.15641 4.25249 
3.15106 3.77828 2.6836 1.81386 1.4619 3.96705 3.55046 3.05141 2.90304 
2.78404 2.50234 0.885767 0.981479 0.793493 0.973459 0.569615 1.4698 0.85206 
0.973669 3.52547 2.68636 2.60559 1.75795 2.80334 2.20518 2.76398 2.24923 
0.870116 0.963359 0.84818 0.942611 0.85483 0.99329 0.859098 0.995472 1.68171 
2.22677 1.16016 2.66468 1.89221 1.69818 1.52608 2.2175 1.20509 2.08378 
1.46101 1.6925 1.25343 1.62971 1.32843 1.804 2.66673 1.89876 2.10116 
1.97325 2.44052 2.3765 2.59218 2.24672 1.00112 0.828227 1.01364 0.8207 
1.2799 0.615563 1.11483 0.760265 1.10721 1.29161 1.03974 1.50477 1.15552 
1.29698 1.06895 1.31916 1.29955 2.2576 1.36854 1.71907 1.55854 1.80188 
1.28156 1.96378 1.07804 1.56459 1.07246 1.41382 0.890462 1.7566 0.914531 
1.5819 1.55042 2.72358 2.42368 3.50787 2.48401 3.10595 2.23856 2.99805 
1.76197 1.44888 1.96341 1.91419 1.93587 1.45416 1.99087 1.61377 1.84269 
2.52893 2.70408 3.04443 1.49874 1.89481 1.84976 2.36394 3.00343 3.19222 
1.79963 2.45711 2.55788 2.76122 2.34975 2.86723 1.07297 0.896576 1.04935 
0.838353 0.980844 0.902352 1.07105 0.838471 1.47017 1.91251 2.86569 3.12265 
1.96636 2.19423 2.09303 2.3417 2.76676 2.56891 1.96482 1.65298 2.72795 
2.47172 2.25523 2.124 1.34525 1.91245 1.10038 2.05372 1.03451 2.34168 
1.12994 2.02731 1.1107 2.62629 1.80799 2.75104 1.30805 2.4198 1.32611 
2.80315 0.886162 0.98604 1.13265 0.815778 1.09549 0.873832 0.965238 0.951663 
0.685045 1.64016 0.605816 1.40902 0.6911 1.49313 0.635741 1.52862 0.918562 
1.28901 0.984498 1.3871 0.797919 1.36335 0.868094 1.40204 2.78274 3.21128 
2.84479 2.18644 1.63431 1.55592 2.55279 2.6067 1.29968 1.5644 1.58019 
1.71723 1.34615 1.64403 1.34716 1.55328 1.05563 0.795587 0.972448 0.865733 
1.10469 0.746683 1.08037 0.77832 1.01652 1.48658 0.973195 1.47595 0.776579 
1.75152 0.968353 1.61199 2.20519 1.64145 0.845801 1.59997 1.31861 1.32639 
1.50296 1.39276 1.01103 0.849174 1.30681 0.605242 1.03164 0.800228 1.17097 
0.673092 1.06344 0.641562 1.45047 0.77451 0.776834 1.19163 1.26886 0.856937 
1.04573 1.45732 0.770808 1.71668 1.43089 1.50801 1.15017 1.46297 0.876543 
1.44531 0.803179 1.32579 0.746277 1.61912 0.760075 1.52913 0.735503 1.22389 
1.17124 1.05474 0.920356 0.830523 0.987893 1.03127 1.18981 1.14806 1.183 
1.21911 1.06028 1.17886 1.14975 1.14443 0.954201 1.01321 0.966689 0.945812 
1.02255 1.03487 0.995235 0.957121 1.32552 1.0973 1.44133 1.33724 1.26379 
1.05921 1.29308 1.1423 1.08245 0.852005 1.1399 0.855195 1.25997 0.890369 
1.17137 0.899021 1.48695 0.870167 1.31362 0.762878 1.18031 0.781951 1.23968 
0.834442 1.54847 1.21327 1.42436 1.06988 1.341 1.27991 1.37056 1.11042 
1.84503 0.784868 1.56223 0.938333 1.57553 0.9132 1.75603 1.03457 1.9315 
1.18077 1.79162 1.27658 1.86955 1.14785 1.8847 1.17099 1.5628 1.31639 
1.5277 1.60453 1.53972 1.36295 1.52952 1.41066 1.48834 1.17806 1.52708 
1.18983 1.48008 1.39983 1.47422 1.31693 0.927252 0.945512 0.923445 0.987656 
0.934214 0.931977 0.933877 0.934123 0.938712 1.07288 0.930738 0.960768 0.91174 
1.01902 0.921259 1.03651 1.18918 1.15468 0.923779 0.997932 1.10899 0.98189 
1.16146 1.08597 1.38343 1.03456 1.57544 1.11589 1.55111 1.11045 1.52988 
1.04849 1.56044 1.54953 1.60389 1.4966 1.32456 1.59809 1.60248 1.58909 
1.23379 0.905107 1.20116 0.786859 1.56702 0.801607 1.40212 0.7706 1.57634 
1.39879 1.74942 1.34865 1.21237 1.57701 1.50267 1.5318 2.39672 0.864921 
1.99756 0.614295 3.32806 0.525965 2.69507 0.635662 1.53711 1.78605 1.55022 
1.65906 1.30589 1.55456 1.49126 1.70679 1.2265 1.16128 1.17305 1.30697 