# vtk DataFile Version 3.0
vtk output
ASCII
DATASET POLYDATA
POINTS 853 float
-15.5666 -6.41832 -23.9781 -15.7322 -5.08207 -24.0575 -15.9385 -3.64389 -24.1843 
-15.945 -2.22039 -24.0419 -15.7292 -0.821204 -23.6339 -15.5602 0.746721 -23.0688 
-15.4505 2.58157 -22.3396 -15.3192 4.68349 -21.4671 -15.2879 6.8028 -20.4324 
-15.1744 8.64405 -19.2817 -14.8637 10.4947 -17.9952 -14.5782 12.308 -16.5928 
-14.3381 14.0976 -15.0103 -14.3252 16.1093 -13.1836 -14.5424 17.9298 -11.2261 
-14.5041 19.1508 -9.00994 -14.2502 19.8888 -6.33808 -14.0061 20.3261 -3.64048 
-13.7472 20.5338 -1.22719 -13.2522 20.1784 0.824012 -12.4739 19.4038 2.37015 
-11.8285 18.4803 3.53816 -11.3065 17.3682 4.40091 -10.757 15.7888 4.89313 
-10.2989 13.9494 4.88145 -10.1438 12.3704 4.28825 -10.0399 10.9714 3.31212 
-9.42626 9.56057 2.1201 -8.24527 8.11548 0.839747 -7.26424 7.04594 -0.604767 
-6.698 6.60423 -2.26685 -6.54985 6.64055 -4.1566 -6.60325 6.41475 -6.04177 
-6.84184 5.6086 -7.8716 -7.15467 4.35432 -9.49357 -7.54942 2.97267 -10.8286 
-8.1428 1.40503 -12.142 -8.79862 -0.340125 -13.5142 -9.15077 -2.0734 -14.6992 
-9.34035 -3.78522 -15.7816 -9.74603 -5.36071 -16.952 -10.3924 -6.78617 -18.0489 
-11.1184 -8.20347 -18.883 -11.8057 -9.59918 -19.5916 -12.3688 -10.9743 -20.2612 
-12.8538 -12.391 -20.812 -13.2107 -13.7778 -21.2157 -13.4879 -14.9838 -21.5859 
-13.8003 -15.9298 -22.0115 -14.192 -16.6348 -22.5329 -14.6912 -16.9689 -23.0927 
-15.2625 -16.795 -23.6176 -15.7947 -16.2299 -24.0349 -16.096 -15.4118 -24.2179 
-16.1541 -14.447 -24.2113 -16.0557 -13.3134 -24.0781 -15.9162 -11.9784 -23.9875 
-15.7744 -10.4963 -23.9654 -15.6266 -8.97765 -23.982 -15.5322 -7.64873 -23.9993 
-15.1146 -7.51727 -23.4424 -15.2174 -6.66105 -23.5748 -15.1375 -5.65184 -23.3365 
-15.3933 -4.71395 -23.5854 -15.3355 -3.52443 -23.4313 -15.3553 -2.59081 -23.4699 
-14.964 -1.6092 -22.862 -15.0248 -0.629307 -22.7593 -14.7715 0.776338 -22.1141 
-14.825 2.22295 -21.7782 -14.4637 3.51843 -20.9961 -14.4826 4.95516 -20.4164 
-14.4189 6.72464 -19.4164 -14.4909 8.16859 -18.725 -14.0049 9.31652 -17.5987 
-14.0835 10.5813 -16.902 -13.6907 11.9814 -15.4885 -13.5328 13.4377 -14.1596 
-13.4233 14.7357 -12.7375 -13.7534 16.047 -11.7256 -13.777 17.2327 -9.95605 
-13.717 17.9449 -8.16654 -13.3128 18.2515 -6.28655 -13.2959 18.6166 -4.69156 
-13.0811 18.873 -2.69495 -12.9869 18.8723 -1.35798 -12.709 18.7869 0.119999 
-12.4595 18.2673 1.34172 -12.044 17.8247 2.48629 -11.7629 17.1393 3.04406 
-11.5034 16.7909 3.73462 -11.234 16.0291 4.13312 -10.8354 14.8413 4.2901 
-10.557 13.8026 4.16135 -10.4517 12.9788 3.94061 -10.3278 12.1937 3.39293 
-10.049 11.3864 2.50231 -9.58775 10.6891 1.77497 -9.01358 9.94137 0.82568 
-7.82255 9.04131 -0.142617 -7.0913 8.48767 -1.45479 -6.75469 8.36864 -2.67713 
-6.92678 8.53558 -4.14592 -6.95518 8.27403 -5.31531 -7.22573 7.72225 -7.07584 
-7.42537 7.12786 -8.24414 -7.77149 5.7746 -10.0019 -7.90653 4.85081 -10.8221 
-8.26312 3.44063 -12.059 -8.61588 2.41343 -12.8589 -9.2707 0.601054 -14.2906 
-9.49582 -0.535071 -14.9669 -9.68559 -2.158 -15.9109 -9.77723 -3.19638 -16.4948 
-10.125 -4.75928 -17.5488 -10.5398 -5.55339 -18.2245 -11.0776 -6.84891 -19.009 
-11.5371 -7.76901 -19.4786 -11.8732 -8.90263 -19.9032 -12.3999 -9.8469 -20.3875 
-12.845 -11.0719 -20.8658 -13.2097 -11.8419 -21.2123 -13.4418 -12.9033 -21.4648 
-13.7205 -13.8077 -21.6631 -13.9411 -14.8787 -21.9013 -14.1794 -15.4948 -22.2098 
-14.421 -16.0468 -22.5463 -14.6611 -16.3129 -22.8716 -14.9984 -16.5207 -23.2676 
-15.2625 -16.271 -23.5286 -15.5543 -16.0985 -23.809 -15.7562 -15.6424 -23.9848 
-15.7939 -14.9096 -23.9696 -15.7895 -14.211 -23.925 -15.6533 -13.4431 -23.7336 
-15.6409 -12.6846 -23.715 -15.4875 -11.5185 -23.5986 -15.4298 -10.3952 -23.6492 
-15.2335 -9.41322 -23.4813 -15.2189 -8.52273 -23.5697 -15.3751 -15.4242 -23.5901 
-15.0648 -15.8189 -23.2201 -15.3887 -14.3251 -23.518 -14.7077 -15.2484 -22.736 
-15.0277 -15.0168 -23.1566 -15.2093 -12.8916 -23.2799 -14.3403 -14.0648 -22.2764 
-14.8466 -14.0277 -22.8769 -14.9632 -11.0851 -23.1032 -13.8919 -12.4117 -21.9107 
-14.4245 -7.48916 -22.706 -14.6544 -9.27513 -22.9134 -12.5302 -8.69932 -20.6987 
-13.2798 -10.6173 -21.4097 -10.9223 14.2368 3.47227 -10.6089 -1.9935 -17.6319 
-11.0714 -4.43339 -18.8332 -14.5724 -12.556 -22.5819 -12.0041 -6.8353 -20.0431 
-11.3246 15.5471 3.33237 -10.5435 13.0433 3.11333 -13.6173 -1.5721 -21.4022 
-14.1634 -3.53324 -22.242 -14.221 -5.50339 -22.4242 -12.6089 9.14277 -16.0775 
-12.3313 13.956 -11.4311 -8.76905 1.12509 -13.1985 -10.2128 1.09398 -16.1977 
-7.30104 5.836 -8.9385 -9.70271 -4.21702 -16.6741 -11.663 16.0925 1.99398 
-10.096 12.2938 1.64798 -13.3404 0.9513 -20.6544 -12.9103 6.69053 -17.8696 
-9.07946 7.38116 -11.5836 -8.45995 9.55688 -8.3091 -13.3289 3.15807 -19.9687 
-10.326 -3.68047 -17.6103 -9.32515 4.23311 -13.8321 -12.1819 11.0995 -14.0784 
-11.9178 16.4641 -5.31143 -14.169 -10.8953 -22.2861 -9.38176 2.24537 -14.3552 
-8.44814 7.90879 -9.77431 -11.0347 14.4106 2.41752 -11.9203 16.5321 0.21067 
-9.46251 11.7059 -0.0613515 -12.1951 15.6406 -8.67492 -7.9531 10.7152 -5.00781 
-12.0047 16.8946 -2.36287 -8.27443 11.102 -2.40862 -11.6123 -2.86304 -19.2565 
-13.6761 -9.28626 -21.9416 -11.0186 14.2691 0.833361 -10.1778 -0.714291 -16.5548 
-11.3797 0.0886846 -18.4161 -8.10398 10.059 -6.67099 -9.03713 5.67048 -12.7435 
-10.8919 4.00076 -16.4915 -10.1152 10.0657 -11.3564 -12.4962 -3.83899 -20.447 
-9.97381 12.6397 -8.04751 -10.6264 8.31644 -13.8401 -13.0716 -4.89763 -21.2068 
-12.8292 -6.15982 -21.0657 -12.4813 16.7696 -7.06213 -10.8583 14.6429 -6.70522 
-12.7722 15.4404 -10.4427 -11.4312 13.6802 -9.8999 -12.3516 17.5557 -0.910635 
-11.3555 15.5678 -1.29237 -10.4922 14.254 -2.8413 -12.3321 17.3746 -3.75546 
-11.3219 15.6923 -3.87132 -9.67694 13.3391 -4.58521 -8.22401 10.4343 -1.0897 
-9.75392 12.8045 -1.40419 -7.62919 10.2886 -3.62544 -10.8245 6.54659 -15.3043 
-12.7844 4.28076 -18.8333 -11.7913 2.04848 -18.5409 -9.23953 12.5095 -6.20994 
-12.1118 -1.13615 -19.6598 -11.8041 12.1226 -12.4549 -10.7862 9.91574 -12.8137 
-11.8426 -5.34909 -19.8297 -13.2023 -7.54569 -21.4916 -10.8599 14.1803 -0.475043 
-10.2172 11.3102 -10.1663 -14.0576 18.9093 -7.43309 -13.5661 18.2397 -7.1334 
-13.7868 18.9509 -6.34893 -8.66809 1.74189 -12.9872 -8.95352 2.40782 -13.4984 
-9.00235 1.59711 -13.6452 -13.3133 18.446 -5.57657 -13.8048 19.3011 -5.3606 
-13.7031 19.4691 -4.22812 -14.1461 20.1315 -4.91919 -14.1849 18.5937 -8.56847 
-14.3886 19.5693 -7.75357 -9.0155 0.831836 -13.7232 -9.05812 0.153845 -13.8836 
-8.76379 0.521789 -13.2468 -13.8099 16.714 -10.893 -14.2319 17.6497 -10.5825 
-14.206 16.9634 -11.5684 -14.4623 17.1112 -12.2123 -14.1052 16.2094 -12.4013 
-12.7226 17.5194 -5.8284 -12.7112 17.6492 -5.01634 -14.2248 18.1939 -9.57947 
-13.7517 17.6052 -9.07877 -13.1163 16.5743 -9.35894 -13.0866 16.9122 -8.5072 
-14.5581 18.6078 -10.1641 -7.33667 7.41706 -7.74504 -7.7695 8.60908 -7.63692 
-7.85254 8.18594 -8.28359 -12.9254 17.5269 -6.69594 -12.1747 16.6236 -6.28509 
-12.8066 19.2445 1.16712 -12.5372 18.9169 1.82889 -12.8694 19.8234 1.65034 
-7.34044 6.44118 -8.58522 -7.05792 5.65484 -8.48274 -7.09372 6.40936 -8.00482 
-11.2288 15.0134 2.85057 -11.0013 14.3261 3.01805 -11.0958 14.7895 3.39846 
-12.2266 18.5563 2.45576 -12.2294 17.97 1.98262 -12.5948 18.5388 0.742329 
-13.0044 19.5065 0.472822 -11.9665 18.1944 2.95705 -12.1096 18.9486 2.99221 
-13.4546 19.7332 -2.04741 -13.858 20.4695 -2.42662 -13.5546 19.6195 -3.07304 
-13.2049 18.796 -3.67041 -12.1919 16.9998 -4.45203 -12.7662 17.9428 -4.15806 
-13.2101 19.6878 -0.374227 -13.2942 19.581 -1.24133 -12.9178 18.9799 -0.666401 
-13.0477 18.9201 -1.92643 -8.71525 10.955 -0.638761 -7.95265 9.74404 -0.638866 
-8.51906 10.2357 -0.112852 -12.6565 18.2226 -1.10968 -12.5197 18.1312 -0.390456 
-13.5704 20.4283 -0.121249 -9.62621 0.844813 -15.0288 -9.77899 0.200888 -15.4604 
-9.39155 0.120258 -14.6013 -11.9393 16.6852 -1.08731 -12.2417 17.2852 -1.53552 
-11.6556 16.1952 -1.8334 -12.5961 14.7723 -10.9598 -13.2685 15.7653 -11.0437 
-13.1269 15.0778 -11.6684 -11.8964 4.12494 -17.8531 -12.1603 3.16166 -18.599 
-11.3112 2.89265 -17.5585 -14.4416 13.1881 -15.8259 -14.2068 12.2148 -16.0481 
-14.0855 13.0378 -15.322 -14.2472 8.71933 -18.1854 -13.9227 7.51912 -18.4985 
-13.5533 8.18357 -17.7559 -14.3637 11.3773 -16.7904 -13.8687 11.142 -16.276 
-13.9907 14.6991 -13.8334 -14.2892 15.0532 -14.1426 -14.022 13.8381 -14.6256 
-14.478 10.621 -17.3963 -14.7217 11.4358 -17.3086 -9.18159 4.97656 -13.3402 
-8.72916 3.87729 -12.8468 -8.54361 4.50269 -12.3139 -14.8671 8.41112 -19.0014 
-14.7286 9.19593 -18.4497 -15.0494 9.53452 -18.6681 -14.7907 -5.67479 -22.9751 
-14.7927 -6.43222 -23.0351 -14.2836 -6.55134 -22.517 -14.4672 9.82976 -17.8284 
-14.9205 7.66579 -19.4563 -14.4472 7.47859 -19.0497 -15.247 7.74459 -19.8663 
-14.9538 6.81951 -19.9586 -13.41 9.101 -17.0559 -13.53 10.0325 -16.5884 
-14.0356 9.96331 -17.2423 -14.9767 -4.98068 -23.1488 -14.8297 -4.39978 -22.9704 
-15.3504 -4.20507 -23.4951 -13.3028 -3.62472 -21.3184 -13.5223 -4.36212 -21.6377 
-12.8224 -4.39584 -20.8732 -13.7126 6.52912 -18.7901 -11.5445 8.76523 -14.9338 
-11.4504 9.72767 -14.0807 -12.3201 10.188 -14.9754 -13.5919 12.7474 -14.8095 
-12.9301 14.3716 -12.1561 -13.6136 15.4001 -12.3249 -12.8819 12.2823 -14.1339 
-13.0003 11.5826 -14.8604 -13.1794 10.6662 -15.7428 -13.904 15.3473 -13.0215 
-13.477 14.1866 -13.3861 -8.45575 2.86369 -12.5156 -8.86998 3.21082 -13.2315 
-9.97421 3.0601 -15.2912 -9.38637 3.27887 -14.1799 -10.0451 4.29215 -15.052 
-8.5102 1.17567 -12.7185 -8.37827 1.96619 -12.4475 -8.13088 2.46036 -11.962 
-8.05714 4.14354 -11.4394 -7.88591 3.15723 -11.3733 -7.66153 3.88243 -10.7145 
-13.7002 4.65939 -19.6896 -13.8535 4.03277 -20.1677 -13.0243 3.58206 -19.4389 
-8.36627 5.95732 -11.1522 -7.82625 5.39015 -10.3591 -8.27186 6.42776 -10.6079 
-12.6712 7.88875 -16.9513 -9.86804 6.18359 -13.9739 -9.77641 6.96351 -13.3235 
-10.7005 7.45692 -14.5711 -14.9833 5.87274 -20.5027 -14.4264 5.80498 -19.9108 
[...]
POINT_DATA 853
FIELD FieldData 3
Radius 1 853 float
1.66619 1.52497 1.39997 1.3687 1.42862 1.5414 1.62063 1.68494 1.77953 
1.86876 1.91901 1.89839 1.80045 1.68004 1.67504 1.79851 1.91596 1.852 
1.62283 1.29555 0.999481 0.705805 0.489988 0.380286 0.40363 0.582772 0.789397 
1.07049 1.43105 1.73904 1.95337 2.03876 1.97549 1.82671 1.59135 1.3315 
1.12176 0.92865 0.723191 0.571447 0.533199 0.565457 0.608006 0.643657 0.679286 
0.722474 0.752208 0.786614 0.82076 0.849618 0.863201 0.89684 0.974462 1.09226 
1.24712 1.40219 1.50949 1.56786 1.63492 1.69517 2.19564 2.09457 2.17491 
1.99626 2.06852 2.01344 2.27106 2.20433 2.37281 2.31477 2.54476 2.56463 
2.69306 2.64628 2.93319 2.76343 2.8999 2.8327 2.8649 2.65359 2.83856 
3.03527 3.26568 3.13998 2.96972 2.77682 2.40548 2.04077 1.56828 1.37636 
1.0434 0.871313 0.79316 0.838761 0.914485 1.10411 1.4037 1.65256 1.99247 
2.3854 2.7901 3.04559 3.26116 3.22706 3.11041 2.98162 2.69431 2.46273 
2.17321 2.01858 1.82375 1.629 1.35838 1.2034 1.11351 1.18105 1.17794 
1.18244 1.10194 1.17072 1.1788 1.26114 1.22387 1.23613 1.19882 1.24184 
1.23887 1.23304 1.16228 1.23853 1.19017 1.26475 1.47555 1.61194 1.79718 
1.82449 1.93737 1.94395 2.09786 2.09239 1.51152 1.4455 1.77297 1.54111 
1.65124 1.98176 1.5966 1.80612 2.11893 1.63273 2.3569 2.25718 1.56935 
1.61158 1.12503 1.9427 1.69487 1.92707 1.65492 1.23228 1.23246 2.64418 
2.47672 2.41013 3.60581 3.70202 1.61198 2.446 2.45284 0.903351 1.86548 
1.73599 2.83338 3.33903 3.42789 3.80103 2.95382 1.45293 2.7835 3.72103 
3.9878 1.99922 2.34752 3.43301 1.53112 2.66403 2.362 4.04417 3.7642 
3.43885 3.20847 2.17071 2.0372 2.15571 2.03652 2.62085 3.83379 3.04509 
3.09841 3.96455 2.28793 4.30938 3.76997 2.30379 2.10731 3.90998 4.29525 
3.56529 4.13204 3.00387 3.1083 3.4659 3.60065 3.80132 3.89595 2.79167 
2.87653 3.48259 3.50806 3.14351 2.95412 4.13896 2.57437 3.85179 3.92524 
1.85734 2.07024 2.65652 4.13945 2.49385 3.10661 2.75654 1.8091 2.19454 
1.96667 3.2103 2.59897 2.57743 1.90457 2.43009 1.86742 1.69952 1.48884 
1.30746 2.69051 2.25552 2.12437 1.65553 2.16282 3.68965 3.62187 2.28991 
2.94745 3.47359 3.56857 1.72792 3.04195 3.49759 3.40003 3.62723 4.00008 
1.74207 1.59046 1.14427 2.71514 2.17534 2.55748 1.40424 1.29677 1.17121 
1.37871 1.79405 2.23164 1.93657 1.23123 0.858883 2.38632 1.76271 2.51796 
3.05138 3.77273 3.46581 2.13026 2.40414 2.57795 2.85602 2.61327 2.63832 
2.42956 2.93949 2.7597 1.4518 2.11656 2.0352 1.75585 3.10669 3.20595 
3.313 3.61381 3.16281 3.20642 3.19079 3.08503 3.00352 1.85609 2.42554 
2.32024 2.77526 2.99108 3.19055 2.34949 2.85783 2.19798 1.73919 2.32325 
2.39809 1.92072 2.91844 2.50478 2.61076 2.32182 2.30852 1.90087 2.32255 
2.31608 2.37165 2.53564 2.22782 2.65977 1.82609 2.27905 3.2831 3.19655 
2.8779 2.25951 2.30995 2.02875 2.46216 2.42363 2.30107 3.05271 3.78916 
3.86361 3.69736 2.84142 3.2995 2.72566 3.36502 3.36495 3.34408 2.35816 
2.79873 2.06837 2.37636 2.73315 2.5873 2.98306 1.40759 1.68867 1.65121 
2.29041 1.8321 1.8901 2.94517 2.85548 3.04839 2.94417 2.60611 3.03703 
3.49956 3.32723 3.46556 3.64981 2.13325 2.62505 3.75775 3.39806 1.34025 
0.835016 0.968571 0.735737 1.02726 1.32738 1.14544 0.834451 0.610507 0.663836 
0.423648 0.983435 0.578538 0.98459 0.886619 0.737398 1.02802 1.0022 1.1858 
1.20021 0.602306 0.368312 0.978222 0.789159 0.970391 1.15239 1.48136 0.677704 
0.864066 0.699295 0.488387 0.796104 1.037 0.682984 0.907602 1.02047 1.16921 
1.02093 2.21764 2.27671 2.15304 1.52302 1.35884 1.58821 1.05786 1.1869 
0.910811 1.17885 1.32686 1.55282 1.53062 1.78747 1.64242 1.96781 1.81096 
1.8296 1.25933 1.80852 1.24288 1.55482 1.36356 1.47192 2.30528 2.31365 
1.37281 1.39438 1.60858 1.36921 2.54528 3.52495 3.84506 1.91445 2.64532 
2.68644 3.16419 2.06156 2.56538 2.28437 3.25405 3.52941 3.58004 2.10075 
1.44996 1.22645 1.65068 1.63447 1.53081 1.36845 1.30282 1.20496 1.42093 
1.37172 1.24697 1.02387 1.71626 3.94157 3.95451 4.01627 1.24495 1.40293 
2.37812 2.18496 2.58806 2.19941 1.94678 2.05059 1.7785 1.87342 1.73455 
1.99981 1.5932 1.86091 2.51745 2.18817 2.91144 2.75782 2.01837 3.14385 
2.72384 2.01325 2.63539 1.61111 1.72111 2.93739 1.72718 1.62152 1.68165 
3.52112 3.63605 3.39255 1.25161 1.41246 1.45562 1.56355 1.50821 2.97282 
3.04272 2.8482 3.02748 3.42788 1.45412 1.24382 0.818179 1.19367 3.20401 
2.92069 2.23511 2.5416 2.15305 1.73303 2.8094 2.80393 2.92168 2.01944 
2.40757 2.03572 1.65214 2.00772 1.63996 1.72237 2.03183 1.98154 1.5838 
2.48791 2.4752 2.25948 1.4911 1.91075 1.89842 2.29634 2.34736 2.27818 
2.41257 2.13766 2.72349 2.63449 2.58171 0.955459 0.974995 1.26817 1.86273 
1.47533 1.48921 1.09114 0.641453 0.763248 1.37194 1.26579 1.58294 1.98264 
1.45438 1.13859 1.92273 1.80665 2.32509 2.43057 0.531795 1.7597 2.54919 
2.59447 0.885871 1.74547 1.38721 2.71637 1.76817 1.67746 1.37221 1.77255 
2.1127 1.69751 1.78349 1.44994 2.03313 1.85 2.12524 1.93409 1.91172 
1.96003 2.16414 1.61231 1.20143 1.51909 1.51188 1.69241 2.00297 2.137 
2.08045 2.00294 1.90605 1.74482 2.27891 1.94597 1.67575 1.91762 2.20067 
2.11058 1.95052 2.01257 1.82933 2.18268 2.133 1.78372 1.95282 1.7973 
1.5981 1.7139 1.88862 1.76875 1.53963 1.46862 1.67102 2.05207 2.04829 
1.99746 2.25296 2.49117 2.49591 2.05946 1.64884 1.83609 2.0485 1.98914 
1.78909 1.69696 1.89852 1.92569 1.8196 0.548365 0.900787 0.900106 1.82658 
0.909143 0.584468 0.967115 1.16059 1.58794 1.42747 0.906945 1.13682 2.19225 
2.22892 0.937747 0.916528 1.15246 1.44303 2.14861 2.02134 0.625992 1.44318 
1.19195 0.974718 0.95662 0.661817 1.05655 0.995617 1.22654 1.63894 0.698277 
1.01763 1.44144 1.38076 1.23049 1.0205 1.02899 1.91743 0.769383 1.02024 
1.02775 1.03896 0.803662 1.60808 1.40053 1.3807 0.737163 1.89352 2.09414 
1.85079 1.55421 1.70964 1.67626 1.81717 1.55918 1.70006 1.46386 1.37841 
1.32437 1.39602 1.37019 1.28622 1.19204 1.1187 1.07924 1.23629 1.34011 
1.02741 0.932254 1.06284 1.16749 1.5156 1.37009 1.34896 1.07114 1.11688 
1.30801 0.836388 1.05251 1.04815 1.23509 1.10733 1.03157 1.20075 1.21662 
1.05618 1.03643 0.874062 1.37282 0.856712 2.07965 2.10044 1.72499 2.60273 
2.3836 2.28217 2.40693 2.64228 2.33021 2.33302 3.02075 2.07938 3.37987 
3.55906 3.79146 3.90563 4.14193 2.78901 2.90694 1.6783 2.05567 2.76781 
3.51102 3.34299 3.32222 3.79233 3.77035 3.57125 3.99505 3.194 1.83143 
3.18015 2.43818 3.64802 4.2282 4.28017 4.18881 2.41633 2.05431 1.61876 
3.14373 3.28666 1.82832 1.91133 2.87198 2.69635 2.92305 3.27251 3.87978 
4.03293 3.30669 3.41901 4.17625 4.27455 3.55004 3.36151 3.66021 3.3342 
2.44534 3.045 3.15991 2.61123 2.33373 1.82393 1.82781 2.05137 2.88139 
2.21388 2.23596 2.74391 2.56285 3.00866 3.82312 4.18613 3.22035 3.62221 
3.24015 2.77759 4.01344 4.05079 2.37652 2.0137 4.10295 4.10529 3.9734 
4.04641 3.80165 3.66948 2.28224 2.21695 2.28615 2.25992 4.31904 4.34131 
4.2486 4.24111 3.69282 3.88454 3.97953 4.05485 3.7946 3.50677 3.28443 
2.81543 3.74149 3.6474 3.63617 3.8503 3.92249 4.17738 4.07541 4.07058 
2.62914 2.48816 3.00642 2.77642 3.89747 3.86959 2.74042 
Rho 1 853 float
-0.343181 -0.261429 -0.0736415 0.0392682 -0.0136353 -0.13007 -0.14997 -0.112062 -0.0966886 
0.00187142 0.230899 0.34585 0.176502 -0.0292709 0.167632 0.492608 0.569831 0.54726 
0.633946 0.465297 -0.00610961 -0.320245 -0.208268 -0.0765644 -0.24161 -0.569177 -0.715287 
-0.60643 -0.3614 -0.160001 -0.00922512 0.0528145 -0.0887681 -0.293888 -0.331393 -0.289694 
-0.196136 -0.0509875 -0.110955 -0.288445 -0.193494 0.0214575 -0.0436207 -0.214638 -0.252401 
-0.174707 -0.190843 -0.363887 -0.538422 -0.641493 -0.73015 -0.888125 -1.03523 -1.01518 
-0.91694 -0.863503 -0.863622 -0.763862 -0.545298 -0.386163 -0.380172 -0.351713 -0.300573 
-0.170962 -0.027766 0.0385087 -0.00530741 -0.0781394 -0.111893 -0.104757 -0.0640688 -0.0820213 
-0.0596147 0.0657979 0.199789 0.330237 0.271528 0.0524664 -0.10127 -0.00453066 0.303179 
0.526278 0.462676 0.367805 0.402429 0.520607 0.533709 0.170946 -0.217106 -0.350918 
-0.302907 -0.147068 -0.130627 -0.269615 -0.454599 -0.644429 -0.655781 -0.591827 -0.446483 
-0.26524 -0.126772 -0.00254278 0.0611398 0.018373 -0.14537 -0.267758 -0.261538 -0.245874 
-0.243028 -0.196689 -0.0200316 -0.0129576 -0.150624 -0.294144 -0.210545 -0.0407085 0.0153254 
-0.0932622 -0.184608 -0.274879 -0.244383 -0.19995 -0.166492 -0.283172 -0.451502 -0.566745 
-0.624966 -0.66847 -0.758759 -0.843582 -0.970098 -1.00773 -0.913404 -0.844482 -0.796046 
-0.830756 -0.774018 -0.66428 -0.525368 -0.42808 -0.842056 -0.709448 -0.740027 -0.591291 
-0.658769 -0.678431 -0.441493 -0.565538 -0.572417 -0.289104 -0.374233 -0.4441 -0.267063 
-0.307936 -0.26112 -0.112543 -0.10174 -0.469938 -0.129617 -0.25686 -0.464664 -0.0350015 
-0.0225446 -0.194401 0.188415 -0.0584734 -0.108215 0.00741382 -0.326213 -0.325523 -0.181841 
-0.4587 -0.0214446 0.0178585 -0.0843104 -0.109324 -0.0300176 -0.237005 -0.169773 0.146592 
0.128892 -0.41181 -0.103045 -0.179746 -0.321489 0.144638 -0.286974 0.286819 0.0317839 
0.107266 -0.17451 -0.0844816 -0.389417 -0.204501 -0.00790934 0.0227087 0.00660404 -0.130552 
-0.0675591 -0.030135 -0.0400625 0.0800996 0.0614655 -0.0809708 -0.157724 0.384105 0.165097 
0.10125 0.0662738 0.359503 0.00871458 -0.19413 0.0728047 -0.140808 -0.0814018 -0.23831 
-0.213281 -0.0298946 -0.0315928 -0.0536353 0.00106184 0.060153 -0.0155723 -0.0148923 0.0621187 
-0.0424716 -0.295263 -0.109649 -0.04598 0.574045 0.524705 0.52984 -0.156934 -0.158717 
-0.10718 0.414034 0.4994 0.481616 0.542993 0.534915 0.574227 -0.0601846 -0.0289083 
-0.0791135 0.137551 0.243782 0.0758402 0.0261229 -0.0390924 0.331498 0.242788 0.413966 
0.446197 0.323356 0.427979 0.342111 -0.223915 -0.137457 -0.199839 0.427695 0.288193 
0.341056 0.0968818 0.239495 -0.305746 -0.334015 -0.292013 -0.281093 -0.305505 -0.241805 
-0.12847 -0.055907 0.388219 0.534332 -0.283344 -0.206711 0.558026 0.58681 0.504387 
0.361913 0.0643216 0.205087 0.624753 0.599371 0.572534 0.470133 -0.262819 -0.244069 
-0.298261 0.452057 0.465968 0.608351 -0.00630819 0.0125122 -0.000798208 0.193955 0.264973 
0.0547066 0.00923712 0.0515986 -0.0516235 -0.0490245 -0.0300313 -0.0278281 0.287092 0.323875 
0.235744 0.133613 0.0463084 0.119587 0.351008 0.325598 -0.00544644 0.0535169 0.112261 
0.309073 0.330264 -0.160214 -0.211127 -0.204508 0.0379319 0.134248 0.100911 -0.268031 
-0.335259 -0.308477 0.224026 -0.0380757 -0.00399949 -0.0638591 -0.0829749 0.20517 0.282546 
0.274391 -0.181366 -0.0993277 -0.10257 -0.0315602 -0.0611696 -0.0490105 -0.0264795 0.120613 
0.128892 0.190026 0.172369 -0.0960502 -0.0873228 0.113916 0.20618 0.261993 -0.0767322 
-0.0504622 -0.225387 -0.1963 -0.0907163 -0.148887 -0.119688 -0.143696 -0.200375 -0.240858 
-0.246783 -0.269506 -0.284892 -0.0670973 -0.0550759 -0.0409459 -0.176646 -0.251056 -0.190079 
0.103721 -0.0784402 -0.0343786 0.0215431 -0.0982146 -0.0832486 0.0709572 0.0095431 -0.0232033 
-0.261673 -0.225485 -0.166585 -0.327978 -0.281104 -0.300792 -0.119406 -0.0863095 -0.0971638 
-0.119354 -0.333813 -0.295172 -0.277474 -0.206903 -0.286654 -0.195146 -0.178004 -0.352644 
-0.345774 -0.143999 -0.110553 -0.25812 -0.189461 -0.196069 -0.28334 -0.309709 -0.246246 
-0.355319 -0.366204 -0.420723 -0.506914 -0.694304 -0.67238 -0.625573 -0.559144 -0.337557 
-0.355939 -0.435345 -0.40891 -0.399019 -0.276934 -0.319084 -0.293393 -0.46722 -0.579511 
-0.694091 -0.704594 -0.666345 -0.622817 -0.604152 -0.538644 -0.521811 -0.432886 -0.382317 
-0.356323 -0.479962 -0.412085 -0.665132 -0.574484 -0.586577 -0.486272 -0.41103 -0.388631 
-0.388292 -0.105562 -0.200675 -0.170524 -0.22551 -0.0624198 -0.0476104 -0.193937 -0.128085 
-0.031178 -0.0559241 -0.338309 -0.300454 -0.306563 0.058681 0.0475974 0.0426766 -0.296917 
-0.31059 -0.257335 -0.783763 -0.832028 -0.884632 -0.679807 -0.73618 -0.711358 -0.569361 
-0.611233 -0.60628 -0.114836 -0.34129 0.0442757 0.0155784 -0.0109078 -0.639449 -0.636082 
-0.129952 -0.212167 -0.192787 -0.370864 -0.461702 -0.364592 -0.436652 -0.516647 -0.500891 
-0.305996 -0.254131 -0.0780357 -0.0568906 -0.349937 0.0650307 0.0392528 0.0011786 0.041873 
0.0480467 0.0393049 0.00520371 -0.731185 -0.688333 -0.0624713 -0.614241 -0.618099 -0.562008 
-0.15547 -0.0689061 -0.0945657 -0.206516 -0.208412 -0.271562 -0.681179 -0.646607 -0.213613 
-0.145703 -0.196099 -0.228682 -0.133895 -0.225232 -0.175119 -0.052833 -0.0601846 -0.242402 
-0.275247 -0.0905174 -0.0714712 -0.0967588 -0.106807 0.0160935 0.0247124 0.00695308 -0.112655 
-0.0811614 -0.132615 -0.133509 -0.0501233 -0.143148 -0.0659084 -0.134695 -0.141844 -0.151364 
-0.023327 -0.0599833 -0.0390408 -0.0830939 -0.0577184 -0.106224 -0.100863 -0.110616 0.0159091 
0.00106318 0.0202912 -0.0336919 -0.0706757 -0.0707979 -0.304352 -0.231874 -0.237593 -0.00887459 
-0.0668489 -0.762366 -0.138215 -0.200471 -0.325769 -0.158042 -0.238266 -0.171761 -0.00738649 
-0.0771775 -0.130823 -0.10498 -0.155344 -0.0243919 -0.0844881 -0.290817 0.0291288 -0.0186156 
-0.0717625 -0.0996193 0.0445613 0.0359856 -0.0458189 -0.0411882 0.0198638 -0.000875953 -0.195569 
-0.240352 -0.122287 -0.208276 -0.163896 0.0234537 -0.320311 -0.334028 -0.283162 -0.344768 
-0.358254 -0.367125 -0.319157 0.0150404 -0.0208909 -0.00960384 -0.358834 -0.374071 -0.0675735 
-0.044653 -0.0984918 -0.150829 -0.0715819 -0.365939 -0.406589 -0.44253 -0.464885 -0.485429 
-0.4737 -0.535097 -0.591307 -0.623993 -0.496358 -0.551609 -0.787663 -0.720438 -0.715317 
-0.669215 -0.857114 -0.812142 -0.835968 -0.829205 -0.870348 -0.852555 -0.627178 -0.683731 
-0.731837 -0.0568459 -0.0423019 -0.0322595 -0.635689 -0.292735 -0.356565 -0.522236 -0.565871 
-0.049905 -0.258354 -0.753228 -0.775172 -0.811351 -0.0575353 -0.0034186 0.0365299 -0.643598 
0.0101615 0.0275616 -0.0583371 -0.0317115 -0.525497 -0.510315 -0.122404 -0.138176 -0.420888 
-0.393938 -0.248538 -0.195104 -0.239952 -0.247822 -0.444573 -0.402457 -0.141498 -0.0434458 
-0.271487 -0.247656 -0.265933 -0.253258 -0.179003 -0.21079 -0.220295 -0.35418 -0.220484 
-0.155138 -0.355015 -0.440955 -0.375145 -0.226882 -0.168038 -0.60457 -0.266606 -0.316932 
-0.413551 -0.497025 -0.459577 -0.316657 -0.293121 -0.276971 -0.157181 -0.69317 -0.220594 
-0.220815 -0.854424 -0.815808 -0.834765 -0.764828 -0.867678 -0.808149 -0.882479 -0.92473 
-0.881294 -0.946799 -0.968398 -0.977582 -1.02226 -1.03575 -1.01022 -0.996525 -0.926669 
-1.0436 -0.983932 -0.949103 -0.966155 -0.222664 -0.846472 -0.781178 -0.608201 -0.633941 
-0.217512 -0.596506 -0.561898 -0.661577 -0.510572 -0.87106 -0.810847 -0.799682 -0.908276 
-0.698658 -0.748745 -0.794954 -0.266173 -0.683376 -0.0128714 -0.479331 -0.552501 0.368442 
0.193239 -0.00784763 -0.0483101 -0.0237312 0.0108057 -0.0197814 -0.0637206 -0.0521245 -0.0712671 
0.00382087 0.195636 0.0853469 0.155454 -0.0434708 -0.0180977 -0.195385 -0.1074 -0.187436 
0.00398139 -0.0420795 -0.0699213 -0.0878559 -0.043378 0.468794 0.369413 -0.0835021 -0.360063 
-0.113945 -0.0432945 -0.157003 0.00717273 0.0861271 0.00857248 -0.0572584 -0.166729 -0.384089 
0.35969 0.266458 -0.281635 -0.328916 -0.0484137 -0.00876087 0.109203 0.187286 -0.10133 
-0.0528713 -0.0191657 0.0259088 0.277809 0.250946 0.0641099 0.215213 -0.190767 -0.214681 
-0.136501 -0.22707 -0.203018 0.00273288 -0.0444232 -0.341068 -0.290428 -0.355569 0.298031 
-0.254991 0.0199811 -0.00404554 0.0278812 -0.0133031 0.0355849 0.14498 -0.0998336 -0.00215296 
-0.0438549 -0.0339795 -0.0727524 -0.0447992 -0.12147 -0.0612856 0.0308534 -0.0171568 0.0349893 
0.0484635 0.0150179 0.0710399 -0.18558 -0.118732 -0.268616 -0.345537 0.178171 0.149864 
0.090952 0.0833814 -0.176849 -0.143586 0.00231469 -0.0442576 -0.069378 -0.0928827 -0.11125 
-0.242303 -0.0484846 -0.0812779 0.00254134 -0.0120631 -0.0579893 0.0477158 -0.0140336 0.02099 
-0.23471 -0.199347 -0.132304 0.00761641 0.0997306 0.0740047 -0.161631 
tcoords 2 853 float
20.2665 -1.93018 18.9053 -2.9059 17.4376 -3.88351 15.8596 -4.83522 14.1616 
-5.71628 12.3412 -6.475 10.4193 -7.06866 8.4296 -7.48126 6.40853 -7.72536 
4.37905 -7.83709 2.34636 -7.86127 0.298723 -7.83225 -1.79439 -7.75826 -3.96203 
-7.61587 -6.22605 -7.35624 -8.58762 -6.92319 -11.0248 -6.26939 -13.4848 -5.35364 
-15.8647 -4.14439 -18.0105 -2.65813 -19.7742 -0.958444 -21.0359 0.871382 -21.7069 
2.7352 -21.7309 4.52061 -21.0888 6.09526 -19.8431 7.29262 -18.1072 8.02802 
-15.9971 8.27625 -13.6397 8.03846 -11.1793 7.3357 -8.75606 6.24017 -6.45534 
4.94046 -4.26977 3.69443 -2.1576 2.6995 -0.0910577 2.0362 1.95036 1.69525 
3.98174 1.62989 6.0073 1.78437 8.01557 2.10488 9.97322 2.54561 11.8431 
3.0718 13.605 3.65326 15.2619 4.25468 16.8257 4.83138 18.3071 5.33742 
19.7022 5.73385 20.9941 5.99663 22.1595 6.11731 23.1749 6.09829 24.0224 
5.94703 24.6924 5.66883 25.1799 5.25629 25.4573 4.70751 25.4997 4.0751 
25.326 3.37419 24.9463 2.60476 24.3642 1.77364 23.5872 0.892982 22.6301 
-0.024156 21.5148 -0.967525 20.4081 -0.599737 19.5842 -1.30282 18.3919 -1.86414 
17.5947 -2.60144 16.204 -3.30092 15.1653 -4.00483 13.7816 -4.43649 12.7791 
-5.09958 11.1849 -5.52807 9.92828 -5.99529 8.42122 -6.07821 7.16223 -6.31667 
5.41734 -6.47373 4.14646 -6.69208 2.57013 -6.49246 1.29721 -6.69903 -0.511165 
-6.50852 -1.97311 -6.3918 -3.71631 -6.08737 -5.05685 -6.11093 -7.03471 -5.72922 
-8.55452 -5.3871 -10.3842 -4.6811 -11.8374 -4.29487 -13.8264 -3.38996 -15.0924 
-2.55984 -16.7585 -1.64393 -17.9779 -0.577138 -19.3302 0.589393 -19.8092 1.69403 
-20.551 2.69504 -20.7045 3.71846 -20.4616 4.75567 -19.9446 5.52251 -19.396 
6.25458 -18.487 6.73333 -17.0653 6.82905 -15.8655 6.84549 -14.2682 6.53441 
-12.6835 6.17488 -10.7425 5.39658 -9.23757 4.65065 -7.42995 3.58802 -6.0084 
2.95195 -3.89125 1.98504 -2.66774 1.42279 -0.415154 0.805356 0.80505 0.618146 
2.84003 0.441774 4.03407 0.403134 6.13003 0.553636 7.29186 0.758747 9.16787 
1.13694 10.2884 1.38623 12.1396 1.96303 13.1714 2.26678 14.7345 2.87244 
15.8124 3.2506 16.9681 3.92355 18.0041 4.21828 19.1867 4.75259 20.0421 
4.85611 20.9524 5.27553 21.7446 5.34737 22.622 5.54752 23.2265 5.48677 
23.8345 5.47802 24.2328 5.36682 24.6795 5.20619 24.8528 4.93077 25.0515 
4.67856 25.1105 4.3358 24.9815 3.88321 24.8586 3.43261 24.4308 2.9885 
24.1767 2.48253 23.495 1.88259 22.974 1.27357 22.0964 0.75294 21.5222 
0.0965026 24.6257 4.41435 24.4579 4.84357 24.3675 3.82457 23.7944 4.89043 
24.1518 4.50051 23.6047 3.09655 22.7724 4.73242 23.5085 4.15122 22.468 
2.20692 21.4132 4.33 19.2002 0.049401 20.9849 1.18771 17.8546 2.85993 
19.771 3.70017 -19.1496 4.53384 10.1782 -0.305923 12.9945 0.689868 22.4685 
3.5829 15.9142 1.8411 -19.5018 3.35917 -18.3394 5.49215 12.5153 -3.32977 
14.8956 -2.42255 17.1076 -1.13114 1.73258 -5.02371 -4.29028 -4.34443 5.04831 
0.948772 6.94272 -0.985416 -1.3622 1.58248 11.0847 2.12374 -18.0675 1.87144 
-16.2588 5.12313 9.95 -4.16508 4.4968 -4.95384 -0.204549 -0.997945 -3.98435 
0.106309 7.64467 -4.70419 11.4412 0.924585 3.55336 -1.15249 -0.913475 -4.76093 
-10.4382 -2.55564 21.1437 2.8733 5.13972 -0.448122 -1.92227 -0.0211942 -17.9585 
3.62824 -16.0875 0.496655 -13.9282 4.33373 -7.26736 -3.64382 -7.65739 1.62711 
-13.4268 -1.20808 -10.943 3.0859 11.9907 -0.897462 19.6738 2.0942 -15.9808 
2.778 8.50578 -0.282809 9.18301 -2.07548 -5.66182 1.05584 1.75339 -0.967835 
5.21783 -2.63947 -2.069 -2.28344 13.7704 -0.970616 -6.12566 -1.30023 0.839452 
-2.95706 15.4554 -0.677892 16.4881 0.427529 -9.06214 -3.69338 -8.31987 -1.80149 
-5.8565 -4.56751 -5.34329 -2.96238 -15.1665 -0.968024 -14.1107 0.618218 -11.8401 
0.710646 -12.2535 -2.52801 -11.4162 -1.05221 -9.5765 0.246061 -12.1668 4.43791 
-12.8845 2.68611 -9.07011 2.81293 3.08438 -3.15845 6.14531 -4.27343 7.50549 
-2.93243 -7.51742 -0.134823 10.9632 -2.33803 -2.58688 -4.1093 -0.858139 -3.14101 
14.6466 0.753811 17.9384 1.16214 -14.4569 2.17991 -3.81224 -1.90866 -9.64124 
-5.89551 -9.58595 -5.11523 -10.5941 -5.39689 4.525 0.709761 4.48772 -0.0111112 
5.09044 0.359928 -11.0478 -4.5449 -11.5496 -5.27743 -12.5914 -4.87356 -12.2575 
-5.84668 -8.60426 -6.17606 -9.79941 -6.62652 5.60016 0.788691 6.09604 1.12227 
5.41356 1.32835 -6.04857 -5.96446 -6.69489 -6.56188 -5.57627 -6.75545 -5.08157 
-7.50426 -4.60032 -6.88664 -10.4798 -3.76374 -11.1859 -3.51192 -7.7051 -6.37069 