# vtk DataFile Version 3.0
vtk output
ASCII
DATASET POLYDATA
POINTS 853 float
15.6633 -1.48026 30.1966 15.7532 -0.00697572 30.273 15.8524 1.58305 30.5063 
15.9392 3.21286 30.334 15.9533 4.885 29.4494 15.8984 6.5935 28.0777 
15.8162 8.32049 26.6908 15.6848 10.1016 25.4688 15.4963 11.7357 24.4553 
15.284 13.0291 23.3654 15.1402 14.1696 22.0093 15.1635 15.2712 20.4975 
15.2936 16.2725 18.9124 15.4739 17.1317 17.3902 15.6283 17.7607 16.2627 
15.5563 18.0945 15.034 15.1655 18.1385 13.1842 14.5139 18.2316 10.9693 
13.7047 18.4144 9.27221 12.7443 18.1479 8.3323 11.6918 17.2179 7.75584 
10.7047 15.7716 7.40987 9.95189 14.2393 7.16017 9.47584 12.8707 7.00874 
9.22794 11.527 7.14025 9.2015 10.1024 7.62682 9.33542 8.78599 8.30846 
9.53184 7.85828 9.11448 9.78852 7.56446 10.0439 10.084 7.77586 11.0651 
10.3709 8.30907 12.1232 10.6766 8.75433 13.214 10.8894 8.63193 14.3734 
11.0545 8.11261 15.4904 11.2381 7.46461 16.4346 11.44 6.56372 17.2464 
11.5968 5.2481 18.1146 11.6003 3.62905 19.1815 11.562 2.0215 20.4262 
11.7729 0.51548 21.8929 12.3352 -0.943825 23.4773 12.8556 -2.39716 24.7453 
13.1134 -3.81009 25.6699 13.2758 -5.08582 26.4885 13.5334 -6.26342 27.2958 
13.8352 -7.41664 28.036 14.036 -8.5108 28.6089 14.134 -9.41203 29.0359 
14.2657 -10.0652 29.4108 14.4944 -10.4828 29.8056 14.8518 -10.6627 30.2443 
15.2562 -10.5714 30.613 15.6615 -10.2426 30.9025 15.9448 -9.67027 31.0448 
16.0384 -8.91619 31.0818 15.912 -8.00168 30.9891 15.6822 -6.96492 30.8392 
15.5178 -5.75862 30.66 15.5031 -4.34357 30.48 15.5836 -2.89054 30.3274 
15.3745 -2.62052 29.7914 15.4675 -1.61229 29.8394 15.4777 -0.593215 29.6137 
15.5736 0.450792 29.914 15.6111 1.78765 29.7957 15.6721 2.99579 29.7097 
15.5634 4.09474 28.7357 15.5839 5.23595 28.1512 15.4408 6.60225 26.8342 
15.4259 7.94317 25.9791 15.2445 8.98557 25.0213 15.1719 10.1022 24.4361 
14.9956 11.3501 23.535 14.9069 12.3263 22.8574 14.755 12.9612 21.7171 
14.8123 13.8537 20.9417 14.8339 14.6345 19.5202 14.9329 15.2962 18.2514 
14.9239 15.8045 17.0536 15.0901 16.3521 16.4639 15.0704 16.692 15.5591 
14.948 16.7159 14.6499 14.5286 16.6455 13.2844 14.2077 16.7691 11.9187 
13.591 16.9131 10.284 13.0941 16.9666 9.44504 12.4981 16.982 8.72635 
11.8478 16.4149 8.44245 11.1412 15.6581 8.01906 10.6382 14.6787 7.91199 
10.1884 13.9179 7.62072 9.85348 13.086 7.53019 9.60364 12.2932 7.52165 
9.46877 11.5767 7.68584 9.40014 10.7611 7.9272 9.39332 9.97903 8.30579 
9.46767 9.34284 8.88106 9.50488 8.91514 9.37222 9.71085 8.81189 10.069 
9.87204 9.04281 10.6903 10.1823 9.49959 11.4805 10.5014 9.98892 12.0645 
10.8588 10.2545 12.9539 11.0339 10.0398 13.6878 11.2759 9.5891 14.8373 
11.4137 9.25169 15.507 11.6602 8.58854 16.6062 11.7785 8.05853 17.1152 
11.9569 7.00573 17.9876 12.0434 6.16423 18.519 12.0512 4.5679 19.6399 
11.9577 3.55606 20.3326 11.9825 2.13975 21.5015 12.141 1.26861 22.4186 
12.667 -0.197255 23.925 13.0525 -1.06057 24.7458 13.3457 -2.43876 25.6381 
13.4508 -3.36574 26.178 13.4381 -4.44064 26.678 13.6319 -5.22654 27.2698 
13.8507 -6.2761 27.8922 14.0759 -6.86395 28.3251 14.2165 -7.76908 28.7059 
14.3335 -8.42461 28.9665 14.4109 -9.22689 29.2383 14.5094 -9.60213 29.458 
14.6604 -9.97316 29.7248 14.8316 -10.1328 29.9876 15.0755 -10.2769 30.3126 
15.2523 -10.1224 30.4735 15.4669 -10.0514 30.6979 15.6416 -9.76978 30.8318 
15.7156 -9.22339 30.8311 15.7376 -8.69095 30.8478 15.5796 -8.04104 30.6608 
15.5103 -7.47386 30.6399 15.3231 -6.54626 30.4133 15.2828 -5.64047 30.3181 
15.2408 -4.67634 30.0491 15.3301 -3.77306 30.0245 15.3371 -9.50994 30.4587 
15.1081 -9.74888 30.1665 15.3587 -8.69253 30.3925 14.8482 -9.33092 29.7552 
15.0549 -9.15966 30.0359 15.1712 -7.55325 30.1533 14.6418 -8.4778 29.3706 
14.9163 -8.3864 29.7791 15.0183 -6.06755 29.8388 14.4533 -7.20479 28.9523 
15.0915 -2.51863 29.1069 15.0139 -4.35895 29.4692 13.965 -4.0853 27.379 
14.1843 -5.7307 28.2812 9.8185 12.0956 8.08097 12.824 2.82068 22.9789 
13.4327 0.392163 24.9984 14.7669 -7.21029 29.4696 13.9687 -2.32317 26.5886 
10.1459 13.1497 7.99104 9.63488 11.0168 8.40732 14.8714 4.04123 26.7596 
15.1799 1.862 28.3861 15.1663 -0.470317 28.7647 14.2754 12.2588 20.3765 
14.1908 14.5813 16.3073 11.8779 4.99911 18.8229 12.7529 5.38833 21.0482 
11.3446 8.45953 16.0328 12.1966 0.227408 22.9527 10.8942 14.2514 8.53558 
9.8746 10.7019 9.32325 14.6573 6.449 25.0483 14.35 10.6638 22.1292 
12.5161 9.94236 17.3177 11.9707 10.8832 15.1989 14.6403 8.38789 24.0506 
12.7221 1.05497 23.6065 12.6741 7.78637 19.0947 14.2147 13.4028 18.4821 
13.4462 15.0952 12.5729 14.6467 -5.81539 29.0661 12.4469 6.11321 19.5648 
12.0272 9.98344 16.1987 10.2221 12.5796 8.62952 11.73 15.0593 9.27486 
10.3638 10.9977 10.3619 13.9986 15.0177 14.8449 11.4642 11.6514 13.1493 
12.6949 15.3164 10.3299 10.9392 11.5644 11.5649 13.6836 2.31662 24.8571 
14.5791 -4.38569 28.5625 10.7995 12.9264 9.49946 12.4892 3.7509 21.6301 
13.4582 5.01569 23.0727 11.6688 11.0723 14.2282 12.553 8.81716 18.2497 
13.44 8.04375 21.0887 13.0751 11.8732 16.7627 14.3786 1.31524 26.4433 
12.7096 12.8369 14.6215 13.4429 11.0185 18.7278 14.7639 0.0745338 27.461 
14.6012 -1.42205 27.4464 14.0671 15.5286 13.9061 13.0575 13.9621 13.7132 
14.4124 15.3489 15.7196 13.5648 13.826 15.4942 12.4456 15.9222 9.46661 
11.9172 14.3843 10.1421 11.9688 13.4808 11.2301 13.3338 15.6492 11.1899 
12.7209 14.4186 11.532 12.1125 13.089 12.4858 10.3787 10.6209 11.0616 
11.1203 12.3482 10.8013 11.0605 11.3562 12.345 13.5448 9.86921 20.0356 
14.3031 9.01985 23.0252 13.8095 6.91313 22.8687 12.192 12.6325 13.6126 
13.9435 4.19278 24.5969 13.9835 13.6716 17.1431 13.5177 12.0495 17.7528 
14.0298 -0.679322 26.1867 14.5871 -2.77423 27.9733 11.2551 13.1915 10.1423 
12.9584 12.3625 15.865 15.1307 17.439 14.0933 14.7795 16.7628 13.934 
14.8432 17.2768 13.2865 11.949 5.56489 18.6396 12.235 6.18635 18.9511 
12.1089 5.45686 19.1 14.4072 16.7205 12.686 14.6927 17.4564 12.452 
14.3994 17.4979 11.4927 14.8599 18.155 12.0285 15.2942 17.4331 14.8441 
15.4069 18.152 14.2199 11.9542 4.74369 19.2112 11.8267 4.10535 19.3969 
11.7465 4.43257 18.9099 15.1111 16.5802 16.0273 15.3947 17.2821 15.9083 
15.3887 17.069 16.4254 15.5766 17.4802 16.8011 15.332 16.817 16.8743 
14.0639 15.9731 12.9396 13.8857 15.9773 12.2446 15.3673 17.4018 15.3975 
15.0212 16.6975 15.1516 14.611 15.9381 15.2297 14.5538 15.9432 14.8284 
15.6259 17.9658 15.6954 11.357 9.40628 15.2255 11.5828 10.1957 15.0029 
11.6532 9.97385 15.3892 14.3181 16.0881 13.6281 13.7806 15.3192 13.333 
12.2571 17.3158 8.31136 11.8267 16.8979 8.10965 12.2199 17.7576 8.01497 
11.3669 8.82355 15.7726 11.1945 8.26325 15.8096 11.2184 8.73085 15.4786 
10.2252 12.9604 8.31027 9.99481 12.3085 8.3227 9.96038 12.5584 8.0554 
11.3764 16.375 7.88859 11.4534 15.98 8.22208 12.1835 16.7506 8.57793 
12.6418 17.5913 8.51531 10.9731 15.7987 7.72946 11.1821 16.5551 7.54788 
13.702 17.6806 9.7973 14.1281 18.3314 10.0356 14.043 17.5809 10.5485 
13.9215 16.8615 11.049 13.4123 15.4001 11.804 13.725 16.1419 11.4878 
13.0433 17.7252 8.85957 13.3338 17.581 9.31242 12.8686 17.107 9.06353 
13.3281 16.9727 9.76499 10.3586 10.7552 10.755 10.0993 9.89908 10.9071 
10.0338 9.87571 10.5749 12.7519 16.4472 9.41814 12.4537 16.4161 9.08191 
13.2424 18.3671 8.73698 12.3226 4.90374 20.1689 12.2926 4.37282 20.5845 
12.0126 4.14133 19.9348 12.2113 15.2314 9.76065 12.5672 15.6684 9.82348 
12.2861 14.8336 10.2288 14.3192 14.9959 16.0122 14.7536 15.8296 16.0632 
14.6879 15.5419 16.4026 13.9044 8.54033 22.1874 14.0177 7.95599 22.8442 
13.584 7.38142 21.9882 15.2205 15.784 19.71 15.0151 15.0356 19.996 
15.0792 15.4813 19.2635 14.8231 12.6225 22.3104 14.7045 11.6326 22.6661 
14.5785 11.9566 21.9391 14.9771 14.5324 20.7634 14.7972 14.1513 20.3105 
15.2214 16.2289 17.9042 15.3752 16.726 18.1316 15.1556 15.8556 18.5981 
14.9629 14.0619 21.4112 15.1339 14.7386 21.2572 12.6359 8.33631 18.7141 
12.2959 7.40666 18.4544 12.2144 7.87319 18.0696 15.0865 12.6905 23.1145 
15.0174 13.1772 22.5403 15.1976 13.6017 22.7369 15.3448 -0.621869 29.2959 
15.3074 -1.40373 29.3548 15.1175 -1.5795 28.8851 14.932 13.5159 21.8969 
15.172 12.2126 23.5655 14.9319 11.8491 23.189 15.3882 12.4137 23.9307 
15.2721 11.6317 24.0335 14.5385 12.5544 21.2328 14.6041 13.2416 20.7135 
14.7707 13.4191 21.326 15.4241 0.154266 29.4896 15.4039 0.809303 29.3179 
15.5786 1.01114 29.8551 14.8052 1.66523 27.3394 14.9425 0.791377 27.8388 
14.6108 0.660356 27.0354 14.6669 10.8998 22.9639 13.8713 11.6237 19.4989 
13.8569 12.2314 18.6979 14.2258 12.8683 19.3291 14.8912 15.0162 18.8518 
14.599 15.2408 16.7018 15.0247 16.1274 16.7811 14.5695 14.3812 18.3581 
14.5689 14.0579 19.0398 14.5503 13.5299 19.8988 15.2105 16.4146 17.2567 
14.9442 15.6135 17.578 12.0145 6.54154 18.2899 12.3072 6.87436 18.7317 
12.8887 6.9774 20.209 12.6038 7.01209 19.3846 13.0568 7.99499 19.9736 
11.743 5.03909 18.4997 11.8234 5.75652 18.2804 11.7532 6.17905 17.9708 
11.8646 7.54988 17.5485 11.6751 6.75255 17.5781 11.5747 7.30674 17.1287 
14.7593 9.63313 23.7785 14.8915 9.23048 24.2051 14.4541 8.61328 23.561 
12.0889 8.88695 17.2166 11.714 8.3879 16.8243 11.9936 9.13301 16.8654 
14.2781 11.407 21.2489 13.0533 9.36323 19.0705 12.9891 9.87749 18.5234 
13.4869 10.4669 19.3869 15.3726 10.9407 24.5282 15.072 10.7071 23.9841 
14.1467 13.6257 17.8326 14.5285 14.5704 17.7351 11.7557 3.49979 19.7546 
10.0921 14.0876 7.41513 10.0107 13.4491 7.59475 9.86621 13.5372 7.34668 
12.1354 0.723226 22.6505 12.3937 1.22338 22.9391 12.396 0.572055 23.2084 
9.73542 12.7078 7.52701 9.51817 12.4826 7.26476 9.677 13.0056 7.2907 
9.68212 13.5435 7.06017 10.3819 14.6949 7.52228 10.292 14.9727 7.28739 
12.4154 -0.022167 23.4363 12.504 -0.56162 23.7229 12.2157 -0.257963 23.1127 
9.96287 13.0249 7.73416 9.84867 12.6312 7.77415 10.6636 15.1425 7.69458 
10.4088 14.3189 7.75129 9.403 11.974 7.29888 9.32686 12.2011 7.02882 
9.6248 11.7942 7.88008 9.50551 11.902 7.56368 9.71903 12.2115 7.80422 
10.1752 13.5437 7.79442 10.8676 15.1523 7.96294 9.36115 11.547 7.45263 
9.42351 11.1879 7.78932 9.3089 11.053 7.56491 9.18744 10.817 7.35304 
[...]
POINT_DATA 853
FIELD FieldData 3
tcoords 2 853 float
20.2665 -1.93018 18.9053 -2.9059 17.4376 -3.88351 15.8596 -4.83522 14.1616 
-5.71628 12.3412 -6.475 10.4193 -7.06866 8.4296 -7.48126 6.40853 -7.72536 
4.37905 -7.83709 2.34636 -7.86127 0.298723 -7.83225 -1.79439 -7.75826 -3.96203 
-7.61587 -6.22605 -7.35624 -8.58762 -6.92319 -11.0248 -6.26939 -13.4848 -5.35364 
-15.8647 -4.14439 -18.0105 -2.65813 -19.7742 -0.958444 -21.0359 0.871382 -21.7069 
2.7352 -21.7309 4.52061 -21.0888 6.09526 -19.8431 7.29262 -18.1072 8.02802 
-15.9971 8.27625 -13.6397 8.03846 -11.1793 7.3357 -8.75606 6.24017 -6.45534 
4.94046 -4.26977 3.69443 -2.1576 2.6995 -0.0910577 2.0362 1.95036 1.69525 
3.98174 1.62989 6.0073 1.78437 8.01557 2.10488 9.97322 2.54561 11.8431 
3.0718 13.605 3.65326 15.2619 4.25468 16.8257 4.83138 18.3071 5.33742 
19.7022 5.73385 20.9941 5.99663 22.1595 6.11731 23.1749 6.09829 24.0224 
5.94703 24.6924 5.66883 25.1799 5.25629 25.4573 4.70751 25.4997 4.0751 
25.326 3.37419 24.9463 2.60476 24.3642 1.77364 23.5872 0.892982 22.6301 
-0.024156 21.5148 -0.967525 20.4081 -0.599737 19.5842 -1.30282 18.3919 -1.86414 
17.5947 -2.60144 16.204 -3.30092 15.1653 -4.00483 13.7816 -4.43649 12.7791 
-5.09958 11.1849 -5.52807 9.92828 -5.99529 8.42122 -6.07821 7.16223 -6.31667 
5.41734 -6.47373 4.14646 -6.69208 2.57013 -6.49246 1.29721 -6.69903 -0.511165 
-6.50852 -1.97311 -6.3918 -3.71631 -6.08737 -5.05685 -6.11093 -7.03471 -5.72922 
-8.55452 -5.3871 -10.3842 -4.6811 -11.8374 -4.29487 -13.8264 -3.38996 -15.0924 
-2.55984 -16.7585 -1.64393 -17.9779 -0.577138 -19.3302 0.589393 -19.8092 1.69403 
-20.551 2.69504 -20.7045 3.71846 -20.4616 4.75567 -19.9446 5.52251 -19.396 
6.25458 -18.487 6.73333 -17.0653 6.82905 -15.8655 6.84549 -14.2682 6.53441 
-12.6835 6.17488 -10.7425 5.39658 -9.23757 4.65065 -7.42995 3.58802 -6.0084 
2.95195 -3.89125 1.98504 -2.66774 1.42279 -0.415154 0.805356 0.80505 0.618146 
2.84003 0.441774 4.03407 0.403134 6.13003 0.553636 7.29186 0.758747 9.16787 
1.13694 10.2884 1.38623 12.1396 1.96303 13.1714 2.26678 14.7345 2.87244 
15.8124 3.2506 16.9681 3.92355 18.0041 4.21828 19.1867 4.75259 20.0421 
4.85611 20.9524 5.27553 21.7446 5.34737 22.622 5.54752 23.2265 5.48677 
23.8345 5.47802 24.2328 5.36682 24.6795 5.20619 24.8528 4.93077 25.0515 
4.67856 25.1105 4.3358 24.9815 3.88321 24.8586 3.43261 24.4308 2.9885 
24.1767 2.48253 23.495 1.88259 22.974 1.27357 22.0964 0.75294 21.5222 
0.0965026 24.6257 4.41435 24.4579 4.84357 24.3675 3.82457 23.7944 4.89043 
24.1518 4.50051 23.6047 3.09655 22.7724 4.73242 23.5085 4.15122 22.468 
2.20692 21.4132 4.33 19.2002 0.049401 20.9849 1.18771 17.8546 2.85993 
19.771 3.70017 -19.1496 4.53384 10.1782 -0.305923 12.9945 0.689868 22.4685 
3.5829 15.9142 1.8411 -19.5018 3.35917 -18.3394 5.49215 12.5153 -3.32977 
14.8956 -2.42255 17.1076 -1.13114 1.73258 -5.02371 -4.29028 -4.34443 5.04831 
0.948772 6.94272 -0.985416 -1.3622 1.58248 11.0847 2.12374 -18.0675 1.87144 
-16.2588 5.12313 9.95 -4.16508 4.4968 -4.95384 -0.204549 -0.997945 -3.98435 
0.106309 7.64467 -4.70419 11.4412 0.924585 3.55336 -1.15249 -0.913475 -4.76093 
-10.4382 -2.55564 21.1437 2.8733 5.13972 -0.448122 -1.92227 -0.0211942 -17.9585 
3.62824 -16.0875 0.496655 -13.9282 4.33373 -7.26736 -3.64382 -7.65739 1.62711 
-13.4268 -1.20808 -10.943 3.0859 11.9907 -0.897462 19.6738 2.0942 -15.9808 
2.778 8.50578 -0.282809 9.18301 -2.07548 -5.66182 1.05584 1.75339 -0.967835 
5.21783 -2.63947 -2.069 -2.28344 13.7704 -0.970616 -6.12566 -1.30023 0.839452 
-2.95706 15.4554 -0.677892 16.4881 0.427529 -9.06214 -3.69338 -8.31987 -1.80149 
-5.8565 -4.56751 -5.34329 -2.96238 -15.1665 -0.968024 -14.1107 0.618218 -11.8401 
0.710646 -12.2535 -2.52801 -11.4162 -1.05221 -9.5765 0.246061 -12.1668 4.43791 
-12.8845 2.68611 -9.07011 2.81293 3.08438 -3.15845 6.14531 -4.27343 7.50549 
-2.93243 -7.51742 -0.134823 10.9632 -2.33803 -2.58688 -4.1093 -0.858139 -3.14101 
14.6466 0.753811 17.9384 1.16214 -14.4569 2.17991 -3.81224 -1.90866 -9.64124 
-5.89551 -9.58595 -5.11523 -10.5941 -5.39689 4.525 0.709761 4.48772 -0.0111112 
5.09044 0.359928 -11.0478 -4.5449 -11.5496 -5.27743 -12.5914 -4.87356 -12.2575 
-5.84668 -8.60426 -6.17606 -9.79941 -6.62652 5.60016 0.788691 6.09604 1.12227 
5.41356 1.32835 -6.04857 -5.96446 -6.69489 -6.56188 -5.57627 -6.75545 -5.08157 
-7.50426 -4.60032 -6.88664 -10.4798 -3.76374 -11.1859 -3.51192 -7.7051 -6.37069 
-7.77894 -5.54248 -7.19606 -4.78107 -7.89482 -4.61449 -7.39561 -7.16449 -3.18799 
1.63876 -3.93049 1.07821 -3.2065 0.822466 -9.71255 -4.1992 -9.68904 -3.16759 
-18.0995 -1.58723 -18.8343 -0.890452 -18.9481 -1.82997 -2.00844 1.53665 -1.65339 
2.06483 -2.45539 2.0196 -18.7031 3.40123 -18.6339 4.11493 -19.2719 4.01093 
-19.5609 -0.115427 -18.7024 0.0940482 -17.3634 -1.12473 -17.3715 -2.19529 -20.1221 
0.62648 -20.4739 -0.054017 -14.7555 -3.85493 -14.694 -4.7855 -13.7392 -4.36146 
-12.8573 -3.90349 -11.4214 -2.58614 -12.0687 -3.33747 -16.4762 -2.82347 -15.486 
-3.21286 -15.9155 -2.25723 -14.5503 -2.96265 -12.9466 4.4399 -12.3918 5.24313 
-13.2397 5.3589 -15.1536 -1.74609 -15.9567 -1.25013 -16.9764 -3.43243 6.44886 
-0.0880293 7.11706 -0.0305471 6.6231 0.623122 -14.7083 -0.245916 -14.3934 -1.07306 
-13.7294 -0.238678 -5.07407 -4.48604 -5.49443 -5.2964 -4.66393 -5.31656 5.75253 
-3.4919 6.6785 -3.48718 6.3769 -2.69468 -0.740252 -7.80187 -0.204066 -7.20132 
-1.11234 -7.16686 3.39679 -6.58754 4.37531 -5.99751 3.44574 -5.79937 0.821033 
-7.23672 0.509332 -6.55488 -2.84192 -7.06238 -2.86731 -7.69839 -1.90742 -7.13031 
1.71358 -7.25681 1.32617 -7.85242 2.70689 -1.11699 3.12564 -0.322077 2.27225 
-0.201495 4.22789 -7.24036 3.34618 -7.25323 3.36353 -7.85767 17.901 -1.49805 
18.6771 -1.01895 18.1806 -0.479217 2.47176 -7.10929 4.98939 -7.21438 4.77232 
-6.56119 5.39425 -7.79496 5.86237 -7.16112 2.344 -5.80878 1.4055 -6.00947 
1.90987 -6.59633 17.3322 -2.06249 16.5314 -2.31113 16.9613 -2.86595 14.2611 
-1.7384 15.2598 -1.38937 14.6596 -0.828352 5.09419 -5.65729 1.27624 -3.97259 
0.0362345 -3.91808 0.287172 -4.84669 -1.28648 -6.47426 -3.97307 -5.27943 -4.32538 
-6.17637 -1.50438 -5.56858 -0.681434 -5.69348 0.45831 -5.75339 -3.76278 -6.80667 
-2.9198 -6.26282 3.5371 0.401804 3.80948 -0.274137 5.1693 -1.45334 4.37718 
-0.899222 4.27982 -1.93634 4.63292 1.26844 3.98731 0.965537 3.34718 1.04382 
1.82651 0.530011 2.42747 1.08264 1.34845 1.18015 6.60759 -5.32687 7.33489 
-5.45276 6.94482 -4.41862 0.364608 -0.0921849 0.0982721 0.709724 -0.332667 0.0703277 
3.17445 -4.95812 2.36484 -2.06327 1.34187 -1.93607 1.95598 -3.05878 6.84622 
-7.07467 6.28563 -6.35327 -1.7257 -4.53312 -2.26313 -5.3494 6.72058 1.29 
-21.0887 2.66928 -20.5964 3.23749 -21.2009 3.35734 10.6617 1.79577 10.7774 
1.13382 11.2352 1.61712 -20.5912 4.20533 -21.0972 4.74707 -21.2048 4.0552 
-21.8019 3.64539 -20.8247 1.9241 -21.4492 1.80582 11.6188 2.08895 12.0219 
2.47573 11.3601 2.54343 -20.1749 3.63924 -19.9611 4.11708 -20.3501 1.33463 
-20.2282 2.17568 -20.8692 5.37418 -21.4903 5.34507 -19.5466 5.07219 -20.2606 
5.22725 -19.7896 4.62354 -20.0713 3.0019 -19.5905 1.16867 -20.4505 5.77642 
-19.708 5.88935 -20.1665 6.26591 -20.5346 6.7477 -19.6453 6.7075 -18.3409 
7.31809 -19.0292 7.72027 -19.0649 7.05772 -18.9323 6.45965 -18.7956 4.88642 
-19.2143 5.49459 21.2524 0.510819 20.5961 0.240937 21.0133 -0.176372 -18.815 
2.6604 -19.5845 2.46171 -19.0739 1.83546 -18.9308 5.93769 -18.3363 6.2069 
-17.0912 8.21326 -17.4875 7.48599 -16.6345 7.57815 -16.3712 6.84963 -15.8383 
7.40132 -15.2444 6.73109 -14.945 7.4606 21.8371 3.2441 21.9718 3.91215 
21.2704 3.60552 -14.8405 8.21725 -13.959 7.31614 -17.8541 6.7795 -16.7727 
6.03163 -17.5994 6.10418 -17.3808 5.25753 20.0949 0.697548 19.914 -0.210769 
-18.0617 4.56607 15.8264 2.64156 16.8205 2.30419 16.6807 3.01831 -3.08431 
2.38203 -4.74071 1.56326 -4.81265 0.529933 -3.20647 3.15881 -4.03858 2.82265 
-5.16653 3.37129 -4.92427 2.4806 -0.841668 1.81951 -0.863267 1.21395 -0.239647 
1.36824 -6.77652 3.32147 -7.51739 2.6918 -6.79257 2.31507 0.425687 1.31393 
0.931727 1.82805 2.96684 1.63157 24.5059 4.14454 24.7023 3.87657 24.7708 
4.12085 24.3293 5.08068 24.5747 5.04746 24.4807 5.27973 23.4431 5.16437 
23.7979 5.24775 23.6006 5.4838 4.99565 1.68309 -1.11998 2.32599 -1.67907 
-3.62952 -1.45358 -2.74922 -2.38165 -3.06654 24.0088 5.43703 24.0597 5.13 
-10.8735 6.36137 -12.0101 6.80234 -11.6904 5.85356 -14.073 5.50886 -15.084 
5.77226 -15.0545 4.69597 22.6014 4.17333 23.0306 3.89085 23.1535 4.38742 
-13.0447 7.12313 -12.4132 7.74208 -9.95642 6.82693 -9.85347 5.90122 -13.4615 
6.35823 -7.07088 4.20849 -6.14529 3.90242 -5.35071 4.29682 -8.19962 4.16236 
-7.95736 4.89686 -7.58975 5.59979 -8.9616 5.44627 24.3811 4.44037 24.2138 
4.22011 -10.0167 5.00364 23.8916 4.35837 23.9899 4.64995 23.6154 4.54325 
-10.314 1.68997 -9.33837 1.74055 -9.93075 2.88293 21.34 5.27959 21.159 
4.8839 21.6756 4.87815 24.2933 4.66885 24.1692 4.86745 -11.6298 3.86672 
-10.8354 4.35625 -11.5175 4.87525 -0.998368 0.443624 -1.06647 -0.524006 20.6422 
4.58535 20.5162 5.08208 7.01544 1.92689 7.6103 1.44239 -2.3629 0.799915 
-1.56244 0.950505 8.42909 -6.7116 7.81399 -6.28823 7.7169 -6.97561 7.42128 
-7.62238 9.59118 -3.05119 8.41928 -2.53229 8.70743 -3.48019 9.28211 -6.70209 
9.20111 -6.03111 10.1305 -6.51851 9.43059 -7.29723 9.29755 -0.341638 9.61495 
0.480619 8.81791 0.405882 11.6823 -6.0678 10.8637 -6.32401 11.391 -6.79392 
13.3077 -3.93093 12.6019 -4.44457 13.2685 -4.77769 13.2656 -6.11389 13.3653 
-5.43796 12.582 -5.75187 12.0581 -5.24166 10.4996 -5.73723 15.0515 -3.34011 
14.2073 -3.52461 14.5027 -4.2114 11.2737 -3.8324 10.7755 -4.83483 11.7257 
-4.5291 10.1224 1.90942 9.50071 1.83785 9.828 1.26239 7.8941 0.215973 
8.22952 0.9642 24.5296 4.647 8.6282 1.64452 9.00317 2.31253 10.651 
2.33532 12.5309 1.43274 11.869 1.48477 12.2152 0.763677 13.9569 -5.01261 
13.1554 1.46365 12.5762 2.1016 12.5503 -0.0752764 11.6854 0.0747572 15.6855 
-2.78015 15.9701 -1.80409 10.9207 2.79991 14.7465 -4.79569 13.739 -2.83683 
9.9937 -5.26775 12.566 2.72927 15.473 -4.41945 15.026 -5.28782 9.09549 
-5.24144 16.7652 -3.66469 16.083 -4.07102 16.663 -4.36519 -18.7385 1.08904 
17.9778 -2.23525 17.521 -3.20624 18.1655 -2.79161 18.1848 -3.39592 15.6212 
-3.63754 19.3025 -2.03349 19.0187 -1.5679 18.6252 -2.3315 19.894 -1.619 
20.3806 -1.2556 19.9421 -0.934977 19.5993 -2.41693 13.9748 2.53046 13.8736 
1.57061 14.6314 1.87886 20.9058 -1.44681 20.9229 -0.849831 15.0979 -0.0810991 
14.2245 -0.119319 15.6353 0.550663 16.2204 1.08132 15.3082 1.34642 19.4168 
-0.747538 21.5182 -0.402392 22.0907 -0.493032 22.015 -0.0032138 21.6603 1.00037 
21.8044 0.43104 22.339 0.405857 22.5606 1.02121 22.8443 0.693128 21.7214 
1.76067 22.2234 1.4082 23.5786 1.41093 23.2023 1.59086 23.2582 1.07435 
23.1299 0.438278 24.2652 2.15861 23.8645 2.23413 23.9149 1.77292 23.9993 
1.33867 24.6802 2.19621 24.5342 2.50354 23.0407 2.7078 23.072 2.09848 
23.4937 2.45744 12.8617 -1.02997 12.3092 -2.02274 13.2387 -2.02549 22.7729 
1.66906 20.6388 3.97719 20.5262 3.26819 22.4513 2.94873 23.0269 3.32924 
13.7528 0.669652 -17.9498 2.82335 24.1003 3.0638 23.9151 2.70796 24.3072 
2.74848 12.7376 3.3577 13.3341 2.99658 14.1931 3.31581 23.9311 3.96842 
14.9248 3.59035 14.4459 3.95417 15.5671 3.70248 15.2662 3.11968 23.3248 
4.7987 23.0421 5.13301 16.2043 4.09353 16.4245 3.60344 20.3315 1.65279 
19.4964 1.16179 17.4475 4.55587 16.8792 4.35281 17.4728 4.0172 20.0023 
4.3591 21.0855 2.10255 20.4394 2.50117 16.0546 4.54904 15.2108 2.2918 
18.6829 4.48401 18.7746 5.02712 18.0795 4.78231 17.5767 5.09585 19.8928 
5.25189 19.3774 5.21535 19.6178 4.79906 22.1386 4.506 19.0163 5.55109 
20.408 5.50212 22.2055 5.00872 22.6501 5.20237 22.2406 5.44078 21.4104 
5.69044 20.9524 5.6229 23.5244 3.67287 21.5941 6.07471 21.8983 5.75287 
22.4131 5.81056 22.8493 5.82479 22.6871 6.12483 18.8809 3.24081 18.7974 
3.90793 18.0551 3.59544 20.3624 5.88269 24.0046 3.50661 17.1248 0.721013 
16.9827 1.54955 24.9167 3.07846 24.6659 3.21033 24.6615 2.82067 24.381 
3.36328 24.9181 3.66253 24.6587 3.59984 25.0799 3.38968 25.1775 3.66332 
25.1617 2.99774 24.8804 4.33909 25.0453 4.13267 25.2496 3.94263 25.2952 
4.22795 25.2937 4.48426 25.2412 4.71047 25.0648 4.50566 24.8552 4.55531 
25.507 4.40024 25.3469 4.99581 25.1437 4.92951 25.439 3.73319 10.2281 
0.693123 24.7384 4.69743 24.6742 4.86875 23.5691 5.755 23.8788 5.66336 
17.3346 3.48061 23.6203 6.03872 23.2046 5.79659 24.1672 5.65458 22.9131 
5.49601 24.9991 5.07115 24.9016 5.25781 24.7949 5.07261 24.9483 4.81426 
24.436 5.5461 24.6945 5.41246 24.9604 5.48009 19.378 4.29937 24.3797 
5.82411 -17.9198 0.619419 21.7944 2.53491 -15.9519 6.17967 -16.5407 -0.631304 
-17.1371 -0.0444024 -17.0318 1.16444 11.4754 -1.70452 11.6214 -2.8058 8.78759 
-1.09439 9.71985 -1.2836 5.786 -5.4019 5.73977 0.0776098 -3.16996 -5.24033 
-5.80237 2.0174 -6.507 -4.15736 -5.6252 -3.7897 -6.22977 -3.17462 8.09272 
-5.43528 8.58761 -4.45407 10.8686 0.316044 11.1054 -0.630777 1.24671 -0.117394 
3.8489 -4.0461 4.8822 -3.78062 4.15156 -3.01934 -2.01403 -1.23923 -1.21204 
-1.66514 -8.76733 -4.51407 -8.23849 -3.67061 -10.1588 4.01165 19.7405 2.90243 
3.34329 -2.13169 5.94182 -0.78977 -2.99876 -0.00798914 -4.92843 -1.50946 -5.69649 
-2.23874 -4.71433 -2.44587 -16.048 1.69573 -16.9951 2.25257 -17.1609 4.23417 
-14.3401 -2.00163 -13.687 -2.35279 -17.0154 3.20165 -16.0694 3.8942 -14.3427 
1.44281 -15.1878 1.39356 -15.0547 0.532039 -6.42217 -5.09631 -2.90037 -0.948441 
-2.82399 -2.08717 -9.24716 3.74177 -8.27638 3.25908 -8.74783 -2.82865 -7.7725 
-2.65616 -12.8134 -1.93023 -12.9816 -2.91316 -10.7607 0.589047 -11.3275 1.79544 
-15.0961 2.42814 -11.9494 2.84756 -12.374 1.75533 10.1537 -2.30249 10.6024 
-1.41207 18.8772 2.48439 17.9319 2.01944 18.8252 1.63818 -15.6199 -0.339068 
-14.996 3.55302 7.82851 -0.647048 10.6698 -3.17048 8.06745 -1.58469 7.65928 
-3.83432 -6.6841 1.37064 -9.35929 -2.05428 0.772061 -0.93991 0.386495 -1.94965 
5.38206 -4.52196 6.1145 -1.78634 -3.94262 -0.817105 -3.22583 -3.03872 16.1793 
-0.910023 13.3975 -0.131424 -5.84571 -0.0684902 -4.99901 -0.56054 -7.61751 0.670435 
-6.64791 0.398824 -0.50744 -2.22357 2.58451 -4.08178 16.8688 -0.177905 16.0234 
-0.145479 17.6863 0.116392 18.5886 0.635661 -6.77174 -2.43487 -7.30216 -1.63022 
-7.91009 -0.872955 -6.89123 -0.634843 -11.5237 -0.249838 -10.6075 -0.551179 -4.76962 
-3.50682 -4.00741 -3.16934 -3.52552 -4.16927 -12.6267 -0.218677 -13.0064 0.685926 
-12.4903 3.64594 -11.8622 -1.80495 -12.3067 -1.04464 -8.41592 2.14353 -8.56057 
0.981874 -10.9131 -1.63907 -8.93318 -0.930455 -9.95123 -1.23169 -8.40923 -0.0310912 
-13.3404 3.50215 -14.1856 3.1371 -13.4203 1.61647 7.21161 -2.03651 -0.92805 
-3.8727 -0.114051 -3.01567 -13.7322 2.4735 
Radius 1 853 float
1.52762 1.46824 1.39978 1.32645 1.26552 1.29227 1.3969 1.54139 1.6356 
1.63863 1.5823 1.52667 1.48681 1.46672 1.4952 1.54905 1.55242 1.50735 
1.48672 1.3484 1.11784 0.837238 0.616281 0.498904 0.514961 0.708569 0.948898 
1.21218 1.44842 1.6678 1.89422 2.0227 1.90618 1.70879 1.5281 1.30947 
1.08494 0.91183 0.730413 0.543143 0.478682 0.537619 0.585793 0.608028 0.654598 
0.75695 0.836883 0.843708 0.802015 0.755815 0.761231 0.828471 0.919691 1.02152 
1.14622 1.27147 1.35532 1.40057 1.45395 1.51592 1.93825 1.87475 1.9723 
1.82728 1.89196 1.79655 1.95869 1.87596 2.0304 2.06649 2.26539 2.28654 
2.37378 2.32517 2.45683 2.29725 2.36663 2.41982 2.54709 2.43251 2.50598 
2.64278 2.78166 2.70346 2.56759 2.40926 2.05899 1.85467 1.4546 1.32879 
1.06536 0.938574 0.865851 0.922372 1.02526 1.20975 1.5122 1.75482 2.09708 
2.35574 2.6345 2.84447 2.98282 2.91022 2.69039 2.55777 2.38786 2.24739 
1.99382 1.81936 1.60388 1.45232 1.2357 1.12846 1.03 1.06583 1.06668 
1.06755 0.988707 1.06435 1.1079 1.21754 1.21358 1.21507 1.14801 1.14766 
1.11708 1.11647 1.08011 1.16757 1.14177 1.19731 1.36111 1.4443 1.61616 
1.62546 1.73143 1.73717 1.85181 1.83118 1.42671 1.34791 1.64094 1.4111 
1.52795 1.79742 1.46856 1.64785 1.89426 1.52078 2.08727 1.99167 1.39596 
1.47884 1.19241 1.61423 1.36959 1.74107 1.4211 1.25344 1.31391 2.13333 
2.12592 2.14197 2.92543 3.22872 1.45352 2.06262 2.18586 0.871811 1.76932 
1.80897 2.3686 2.81672 2.92963 3.14815 2.55657 1.26279 2.462 3.03911 
3.46217 1.80359 2.05571 2.902 1.55829 2.38675 2.36283 3.39437 3.26283 
2.97828 2.90887 1.68738 1.8314 2.13754 1.7271 2.1219 3.20214 2.67661 
2.63465 3.29237 1.81971 3.53095 3.10206 1.95658 1.83445 3.3205 3.60202 
3.12788 3.47276 2.56589 2.79716 3.14144 3.15295 3.34552 3.42067 2.63339 
2.73611 3.08818 2.92737 2.70232 2.4735 3.47952 2.03358 3.24445 3.229 
1.51719 1.84929 2.56175 3.41436 2.1583 2.67254 2.31439 1.62926 1.95497 
1.7481 2.74008 2.15812 2.15161 1.52521 2.13655 1.56029 1.50825 1.34213 
1.19582 2.43831 2.01836 1.9484 1.47345 1.96117 3.17395 3.15423 2.052 
2.58369 2.99312 3.0508 1.52413 2.61219 2.94148 2.86626 3.0974 3.41856 
1.64555 1.53548 1.24066 2.36279 1.97788 2.24167 1.42398 1.34989 1.22072 
1.33916 1.65423 1.95334 1.78724 1.17017 0.986704 2.09693 1.49953 2.11771 
2.62993 3.31002 3.03085 1.95724 2.14728 2.23446 2.48179 2.52201 2.52751 
2.40875 2.50862 2.3356 1.43123 1.82972 1.7567 1.55249 2.70055 2.75323 
2.90755 3.17924 2.8455 2.88237 2.71216 2.62362 2.53609 1.50506 1.97046 
1.92668 2.38991 2.58312 2.68694 1.94452 2.3455 1.93785 1.4731 1.96445 
2.00602 1.55149 2.57854 2.26017 2.35429 2.05632 2.01925 1.61718 2.08141 
2.06092 2.10726 2.14108 2.00727 2.35279 1.64562 2.04151 2.7095 2.62425 
2.39448 2.02585 2.05375 1.85276 2.02241 2.05972 1.89554 2.63882 3.07499 
3.14013 2.98895 2.36901 2.9255 2.46214 2.79929 2.74521 2.71693 2.09809 
2.46527 1.88443 2.13154 2.35615 2.27918 2.57875 1.29222 1.53511 1.55191 
2.09747 1.70394 1.78518 2.57532 2.50423 2.62977 2.60693 2.33846 2.65585 
2.8863 2.84314 2.93778 3.01882 1.95495 2.33635 3.11861 2.89307 1.23018 
0.892561 1.01541 0.820719 0.991548 1.20857 1.06539 0.902947 0.698032 0.751278 
0.546618 0.997248 0.707522 0.931489 0.854071 0.698739 1.07508 1.05666 1.14698 
1.19097 0.691333 0.482301 1.05176 0.866208 1.03654 1.16796 1.39231 0.770203 
0.961603 0.805174 0.602383 0.90553 1.13296 0.826392 1.00979 1.13146 1.23955 
1.10481 1.94115 1.99622 1.88758 1.49653 1.33936 1.51952 1.15978 1.29443 
1.07445 1.27729 1.41944 1.65267 1.63188 1.90215 1.70925 1.77657 1.65083 
1.67094 1.34116 1.86996 1.34839 1.65634 1.46659 1.54556 2.03238 2.04082 
1.42857 1.22428 1.41031 1.2121 2.26523 2.98029 3.18372 1.8127 2.40648 
2.51015 2.78361 1.90311 2.27802 2.06571 2.96704 3.12289 3.13201 1.94779 
1.41764 1.19977 1.54319 1.51104 1.4334 1.26033 1.21199 1.10268 1.29944 
1.24765 1.13516 0.990829 1.61752 3.2609 3.27077 3.33874 1.12099 1.28247 
2.30832 2.18516 2.48629 2.26602 2.05202 2.1066 1.61832 1.69837 1.5785 
2.0142 1.55516 1.78427 2.4653 2.23552 2.78885 2.6426 1.98282 2.92214 
2.69052 1.9806 2.59667 1.50605 1.59791 2.75121 1.58799 1.49161 1.53635 
3.16437 3.21941 3.02499 1.23821 1.35874 1.38738 1.4526 1.39118 2.75312 
2.78206 2.66036 2.62672 2.91882 1.37967 1.21663 0.820377 1.09752 2.72351 
2.5291 2.0197 2.26323 1.94847 1.60375 2.28572 2.30454 2.43536 1.84941 
2.15816 1.81607 1.4658 1.68617 1.4349 1.50375 1.7202 1.75576 1.33659 
2.10093 2.07814 1.92946 1.2682 1.63665 1.63911 1.95574 2.07164 2.00612 
2.07245 1.87025 2.22041 2.23338 2.15725 0.930912 0.892295 1.15895 1.61947 
1.32542 1.39985 1.03987 0.63804 0.745104 1.18712 1.13245 1.3133 1.73298 
1.23051 1.04487 1.51229 1.46294 2.06488 2.12295 0.481806 1.57918 2.10741 
2.26199 0.846364 1.59115 1.29321 2.37369 1.67274 1.57224 1.36249 1.64357 
1.92459 1.61991 1.6694 1.43435 1.82551 1.6985 1.91348 1.78648 1.72985 
1.75301 1.9198 1.50915 1.0773 1.27152 1.28131 1.52828 1.77027 1.77839 
1.67373 1.6935 1.64215 1.46557 2.01855 1.71155 1.49135 1.68559 1.93943 
1.85125 1.72134 1.78616 1.62607 1.93848 1.8918 1.59612 1.74959 1.60729 
1.42418 1.52327 1.68731 1.57174 1.37872 1.32353 1.48314 1.84745 1.83529 
1.79727 1.74898 1.93667 1.98016 1.83822 1.52806 1.67324 1.84174 1.79806 
1.43869 1.67739 1.71952 1.73262 1.62543 0.506691 0.852267 0.854793 1.68129 
0.856038 0.564319 0.902686 1.05231 1.45044 1.31615 0.834813 1.02463 1.9533 