# vtk DataFile Version 3.0
vtk output
ASCII
DATASET POLYDATA
POINTS 853 float
-15.5456 -7.32356 -23.8822 -15.7433 -5.98563 -24.0236 -15.9191 -4.62655 -24.1389 
-15.8417 -3.20932 -23.933 -15.5012 -1.73781 -23.5814 -15.2259 -0.174189 -23.3033 
-15.0428 1.55289 -22.8403 -14.8045 3.50817 -22.1193 -14.6146 5.5718 -21.2973 
-14.4174 7.49929 -20.2664 -14.2428 9.58484 -18.8287 -14.2323 11.7646 -17.0439 
-14.2532 13.8742 -15.2162 -14.3266 15.9498 -13.3274 -14.4715 17.4929 -11.4273 
-14.37 18.6127 -9.3522 -14.1954 19.6267 -6.80895 -14.1673 20.2816 -4.16513 
-13.9584 20.3055 -1.67363 -13.3838 19.6946 0.506723 -12.4994 18.8832 2.0532 
-11.743 18.0452 3.08014 -11.1959 16.9854 3.84547 -10.7358 15.4822 4.32739 
-10.4058 13.7033 4.33558 -10.3258 12.0398 3.75848 -10.3012 10.5888 2.78716 
-9.8251 9.21434 1.64078 -8.76498 7.83769 0.398441 -7.74076 6.74261 -1.11773 
-6.98243 6.12085 -2.92099 -6.63771 5.91289 -4.90914 -6.67169 5.61106 -6.76718 
-6.98264 4.89385 -8.51492 -7.44415 3.64518 -10.0069 -7.80528 2.22103 -11.0324 
-8.04047 0.729546 -11.9531 -8.38107 -0.874588 -13.0008 -8.81249 -2.53072 -14.1184 
-9.10435 -4.22905 -15.3518 -9.36427 -5.79133 -16.7579 -9.86598 -7.1258 -17.9387 
-10.6309 -8.43342 -18.738 -11.4164 -9.85489 -19.4361 -12.0771 -11.3342 -20.1361 
-12.5857 -12.8133 -20.6671 -12.9376 -14.1561 -21.02 -13.2155 -15.2812 -21.3748 
-13.5142 -16.2111 -21.8252 -13.8356 -17.0208 -22.3492 -14.2205 -17.5208 -22.8807 
-14.7394 -17.5125 -23.47 -15.2898 -17.0741 -24.0423 -15.6381 -16.2721 -24.304 
-15.6933 -15.235 -24.2653 -15.526 -13.9716 -24.0743 -15.3685 -12.6118 -24.0233 
-15.3305 -11.2325 -24.0431 -15.3735 -9.84358 -23.9935 -15.444 -8.5779 -23.9119 
-15.0741 -8.34956 -23.3235 -15.2513 -7.49386 -23.4963 -15.206 -6.43267 -23.3036 
-15.4506 -5.60138 -23.5614 -15.3385 -4.43131 -23.3314 -15.2565 -3.51907 -23.3037 
-14.7709 -2.45312 -22.6785 -14.746 -1.50289 -22.7466 -14.4154 -0.158486 -22.2759 
-14.4138 1.13368 -22.1744 -14.0179 2.35858 -21.3681 -13.9738 3.72202 -21.0033 
-13.8347 5.51565 -20.2491 -13.8652 7.05096 -19.6661 -13.5742 8.35317 -18.4766 
-13.7329 9.83286 -17.5674 -13.6022 11.5358 -15.9651 -13.5733 13.2525 -14.4894 
-13.435 14.6022 -13.0225 -13.6901 15.7247 -11.9291 -13.6216 16.6909 -10.2165 
-13.5152 17.4433 -8.5038 -13.1761 17.9836 -6.68465 -13.3367 18.5548 -5.16005 
-13.2506 18.8044 -3.17215 -13.135 18.6082 -1.79524 -12.8224 18.3225 -0.227984 
-12.489 17.7513 1.01696 -12.0139 17.3492 2.11141 -11.681 16.7688 2.54843 
-11.4045 16.4224 3.18581 -11.1639 15.7137 3.55261 -10.8555 14.6305 3.71268 
-10.6489 13.6306 3.60049 -10.5806 12.7213 3.40758 -10.4859 11.8528 2.87571 
-10.2552 11.0267 2.01442 -9.85439 10.3222 1.3402 -9.31641 9.60733 0.427917 
-8.14263 8.72907 -0.549539 -7.3045 8.10317 -1.97362 -6.80893 7.81313 -3.34596 
-6.84763 7.83647 -4.84468 -6.89005 7.51307 -6.01 -7.19468 7.01057 -7.74091 
-7.4652 6.50759 -8.93002 -8.03166 5.12256 -10.699 -8.25803 4.11017 -11.3591 
-8.47497 2.66617 -12.2592 -8.53989 1.70128 -12.7457 -8.82576 0.0250939 -13.7688 
-9.06225 -1.03508 -14.3028 -9.36827 -2.6128 -15.2324 -9.5172 -3.63743 -15.9301 
-9.73708 -5.19655 -17.252 -10.0814 -5.93523 -18.0436 -10.6286 -7.11822 -18.8731 
-11.1305 -7.95948 -19.3145 -11.45 -9.11147 -19.718 -12.0543 -10.1306 -20.2161 
-12.5387 -11.4501 -20.7188 -12.8837 -12.232 -21.031 -13.1252 -13.2869 -21.2746 
-13.3993 -14.1149 -21.4499 -13.6415 -15.1293 -21.7123 -13.8589 -15.7864 -22.0402 
-14.0744 -16.4051 -22.3885 -14.2504 -16.7799 -22.6843 -14.5085 -17.1208 -23.0661 
-14.7671 -16.9672 -23.3703 -15.0412 -16.8975 -23.7394 -15.2759 -16.5012 -23.999 
-15.3457 -15.7238 -23.9758 -15.3151 -14.9476 -23.8914 -15.129 -14.0773 -23.6461 
-15.0808 -13.2969 -23.6648 -14.9787 -12.1652 -23.5894 -15.0572 -11.1539 -23.679 
-14.9631 -10.2005 -23.4339 -15.0845 -9.39506 -23.4869 -14.9271 -16.1547 -23.4876 
-14.6417 -16.385 -23.0443 -14.9413 -14.9647 -23.3969 -14.342 -15.6433 -22.5571 
-14.6353 -15.5689 -22.9796 -14.6997 -13.4351 -23.1323 -13.9634 -14.3654 -22.0581 
-14.4186 -14.4728 -22.6632 -14.5481 -11.6737 -22.9758 -13.5008 -12.7475 -21.671 
-14.4383 -8.09289 -22.5943 -14.4598 -9.91093 -22.7571 -12.2586 -8.91774 -20.5154 
-12.9487 -10.9345 -21.1958 -10.9563 14.1052 2.87938 -10.2377 -2.49906 -16.8149 
-10.7124 -4.85992 -18.4269 -14.1085 -12.9529 -22.3371 -11.8076 -7.05338 -19.9132 
-11.277 15.3074 2.75524 -10.6388 12.8281 2.56373 -13.3192 -2.29972 -21.0357 
-14.1126 -4.24983 -22.0058 -14.3123 -6.1116 -22.3411 -12.5921 8.33874 -16.8968 
-12.203 13.6826 -11.8171 -8.42667 0.51507 -12.8284 -9.84005 0.403528 -15.6404 
-7.47375 5.19845 -9.59717 -9.41726 -4.65994 -16.3224 -11.6088 15.7459 1.51108 
-10.1966 12.0167 1.15235 -12.9365 0.0133808 -20.4441 -12.6569 5.6011 -18.6163 
-9.37357 6.74989 -12.5066 -8.31096 9.01778 -8.95322 -12.9373 2.01131 -20.1013 
-9.98991 -4.1302 -17.0581 -9.47415 3.39504 -14.094 -12.3345 10.6593 -14.8667 
-11.7488 16.3168 -5.698 -13.7949 -11.2947 -22.0423 -9.16013 1.5289 -14.1184 
-8.50984 7.37721 -10.5696 -11.0204 14.2335 1.83853 -11.8484 16.1401 -0.258273 
-9.49838 11.4228 -0.543684 -11.8898 15.1478 -8.96772 -7.7184 10.1214 -5.58553 
-12.0032 16.7664 -2.85806 -8.18378 10.7641 -2.9709 -11.2527 -3.37718 -18.5793 
-13.4937 -9.64709 -21.742 -10.942 14.0037 0.287455 -9.76656 -1.25132 -15.7262 
-10.9539 -0.600875 -17.6553 -7.87682 9.4329 -7.21827 -9.42309 4.84549 -13.431 
-10.7841 3.05262 -16.6335 -10.1957 9.66994 -12.3202 -12.3004 -4.33805 -20.0486 
-9.64777 12.1716 -8.47731 -10.9452 7.59619 -14.8183 -13.0851 -5.35379 -21.0185 
-12.8589 -6.48594 -20.9602 -12.207 16.3843 -7.37009 -10.5127 14.2616 -7.02252 
-12.5652 15.0074 -10.7229 -11.1495 13.2667 -10.2752 -12.36 17.2085 -1.36861 
-11.2167 15.306 -1.84005 -10.3162 14.0888 -3.38101 -12.3511 17.3895 -4.22582 
-11.1943 15.6482 -4.34568 -9.41596 13.0417 -5.05541 -8.28556 10.1358 -1.57395 
-9.62256 12.5518 -1.95624 -7.47012 9.76521 -4.24486 -11.029 5.62119 -16.0287 
-12.4526 3.11273 -19.1871 -11.4607 1.08166 -18.2701 -8.89481 12.0335 -6.62977 
-11.6893 -1.77787 -18.9009 -11.8496 11.8677 -13.1292 -11.0031 9.44727 -13.8382 
-11.6211 -5.68239 -19.6331 -13.19 -7.86624 -21.3709 -10.7111 13.8929 -1.03367 
-10.0704 10.9344 -10.8112 -13.9226 18.4894 -7.83092 -13.3903 17.8574 -7.50779 
-13.6969 18.6768 -6.78066 -8.44866 1.08223 -12.7331 -8.81137 1.69537 -13.3408 
-8.70005 0.950378 -13.3177 -13.2555 18.2836 -6.01116 -13.8164 19.1555 -5.83614 
-13.8182 19.41 -4.72596 -14.2119 20.0304 -5.43389 -14.0294 18.0568 -8.91516 
-14.2678 19.1218 -8.16185 -8.60572 0.243257 -13.2752 -8.60391 -0.388245 -13.3548 
-8.36936 -0.0508943 -12.8092 -13.7006 16.2628 -11.1153 -14.1343 17.1402 -10.8116 
-14.1533 16.5772 -11.7451 -14.4328 16.8138 -12.3637 -14.093 15.9676 -12.5589 
-12.5775 17.3135 -6.21239 -12.6578 17.5655 -5.44445 -14.0872 17.6262 -9.86965 
-13.5587 17.0427 -9.37823 -12.8862 16.0381 -9.63597 -12.8291 16.3907 -8.80283 
-14.4466 18.0782 -10.4347 -7.34051 6.75882 -8.4162 -7.67221 7.98067 -8.28289 
-7.8086 7.60123 -8.96961 -12.7154 17.1958 -7.04492 -11.9346 16.3383 -6.61782 
-12.8977 18.7118 0.875017 -12.5787 18.3817 1.52935 -12.9488 19.3 1.35148 
-7.4483 5.8163 -9.26544 -7.22431 4.98736 -9.11785 -7.18501 5.74014 -8.66837 
-11.1985 14.8253 2.26829 -11.0133 14.1836 2.42563 -11.092 14.6281 2.80428 
-12.2224 18.0451 2.12019 -12.2269 17.4711 1.63892 -12.6654 18.0264 0.418282 
-13.1454 19.0191 0.157714 -11.917 17.7276 2.55811 -12.081 18.4594 2.62201 
-13.6675 19.5929 -2.51375 -14.0713 20.3791 -2.92804 -13.7426 19.5599 -3.56618 
-13.3299 18.7725 -4.15503 -12.1349 16.9768 -4.89348 -12.8051 17.9373 -4.62334 
-13.39 19.3034 -0.743528 -13.4887 19.3204 -1.668 -13.059 18.6151 -1.06294 
-13.2185 18.7547 -2.38531 -8.77073 10.6693 -1.11407 -8.13222 9.4351 -1.08187 
-8.7057 9.93448 -0.537989 -12.7382 17.9059 -1.54894 -12.5801 17.7207 -0.796856 
-13.7477 20.0403 -0.490526 -9.21166 0.231142 -14.4888 -9.34565 -0.366463 -14.795 
-8.93293 -0.419876 -14.0034 -11.8726 16.3788 -1.59026 -12.2471 17.0297 -2.01858 
-11.57 15.986 -2.35828 -12.4169 14.4166 -11.2707 -13.1297 15.3746 -11.2943 
-13.0336 14.7991 -11.9446 -11.6779 3.04948 -18.0937 -11.862 2.07688 -18.641 
-11.0638 1.92735 -17.4499 -14.2387 12.8195 -16.1321 -13.9797 11.7344 -16.4624 
-13.9855 12.7212 -15.6195 -13.7111 7.67215 -19.1003 -13.4379 6.39712 -19.3785 
-13.2026 7.15193 -18.625 -13.9946 10.7235 -17.3466 -13.6461 10.5253 -16.8476 
-14.0128 14.5651 -14.019 -14.2763 14.9122 -14.2977 -14.007 13.6441 -14.8438 
-13.993 9.80865 -18.1152 -14.2333 10.7115 -17.9384 -9.48235 4.12311 -13.8345 
-8.92886 3.07317 -13.0916 -8.8695 3.69058 -12.7559 -14.1558 7.27933 -19.9684 
-14.0706 8.15244 -19.3799 -14.3231 8.48061 -19.6251 -14.8787 -6.38904 -22.9309 
-14.8595 -7.13521 -22.9722 -14.3581 -7.12708 -22.439 -13.9212 8.88566 -18.6882 
-14.2189 6.47476 -20.4011 -13.8328 6.30879 -19.9633 -14.5151 6.54208 -20.8123 
-14.2959 5.59058 -20.8282 -13.155 8.18918 -17.8918 -13.3121 9.26335 -17.3148 
-13.6407 9.0992 -18.0321 -15.0578 -5.77493 -23.1048 -14.8876 -5.18826 -22.8783 
-15.3925 -5.10017 -23.4433 -13.1899 -4.21277 -20.9926 -13.5219 -4.92624 -21.4186 
-12.7448 -4.87313 -20.5986 -13.2607 5.3577 -19.5678 -11.7478 8.00832 -15.8447 
-11.6855 9.13255 -15.0245 -12.4318 9.57805 -15.7845 -13.5942 12.4556 -15.2014 
-12.889 14.1809 -12.4991 -13.5929 15.2026 -12.5526 -12.9658 11.9877 -14.6892 
-13.0464 11.1457 -15.4755 -13.122 10.0516 -16.4119 -13.9224 15.2072 -13.2131 
-13.5152 14.055 -13.684 -8.5172 2.11752 -12.5394 -8.90432 2.44335 -13.2719 
-9.83484 2.2449 -15.2041 -9.34939 2.48881 -14.1855 -10.0903 3.40997 -15.2792 
-8.24412 0.550676 -12.4057 -8.28045 1.27928 -12.2898 -8.19912 1.73312 -11.9569 
-8.37552 3.37006 -11.8202 -8.10734 2.40467 -11.5483 -7.97133 3.135 -11.0619 
-13.2635 3.44227 -20.1678 -13.4206 2.83306 -20.523 -12.657 2.41686 -19.6453 
-8.71783 5.24712 -11.8922 -8.14446 4.69701 -11.0037 -8.54422 5.78558 -11.3987 
-12.5574 6.91675 -17.7787 -10.2017 5.31188 -14.7007 -10.155 6.16723 -14.2078 
-10.9942 6.61448 -15.453 -14.3855 4.63011 -21.267 -13.8792 4.5705 -20.6231 
[...]
POINT_DATA 853
FIELD FieldData 3
Radius 1 853 float
1.78485 1.59625 1.42552 1.37801 1.43754 1.53056 1.56438 1.54708 1.56934 
1.6755 1.85732 1.99975 1.94698 1.75871 1.7102 1.81819 1.87362 1.75229 
1.57261 1.28581 0.995318 0.730222 0.56924 0.435853 0.407464 0.603158 0.777384 
1.0103 1.40728 1.75878 1.97205 2.01901 1.9305 1.80422 1.62561 1.40068 
1.17449 0.929873 0.709424 0.595062 0.561263 0.546085 0.584858 0.664904 0.72787 
0.774381 0.78828 0.802853 0.814045 0.828727 0.853054 0.894544 0.946331 1.03241 
1.18203 1.38003 1.53807 1.63311 1.73741 1.82108 2.3309 2.18812 2.24303 
2.03189 2.09782 2.0599 2.32769 2.23742 2.39351 2.29593 2.51181 2.44856 
2.49411 2.4389 2.76673 2.70857 2.93118 2.88942 2.92427 2.74406 2.90066 
3.03975 3.20281 3.02239 2.87486 2.73815 2.39067 2.0268 1.5726 1.42796 
1.12583 0.959058 0.847605 0.872091 0.931211 1.10276 1.37058 1.58435 1.92422 
2.37637 2.82208 3.075 3.25282 3.1873 3.06016 2.97228 2.77814 2.57885 
2.28693 2.06649 1.76537 1.5435 1.30418 1.20339 1.11562 1.17372 1.16224 
1.1899 1.10638 1.20708 1.22503 1.28647 1.24884 1.2549 1.2236 1.23881 
1.22631 1.21196 1.17046 1.25028 1.1831 1.22231 1.43257 1.59312 1.82309 
1.87192 2.0051 2.00687 2.2159 2.21216 1.50159 1.45016 1.77853 1.54691 
1.65362 2.02037 1.61435 1.82039 2.20047 1.64641 2.50397 2.38726 1.63492 
1.66635 1.21298 1.89137 1.70551 1.94745 1.71993 1.33793 1.27241 2.73569 
2.55709 2.51818 3.54872 3.84268 1.60573 2.32944 2.50309 0.932607 1.91652 
1.74069 2.88855 3.23632 3.54097 3.76849 2.94218 1.45727 2.90696 3.77396 
3.92449 2.06037 2.34299 3.43542 1.63566 2.66131 2.3687 4.03604 3.81641 
3.44488 3.30139 2.1943 2.16077 2.20736 1.90654 2.55731 3.81686 3.21079 
3.14262 4.06578 2.3602 4.33193 3.89422 2.4126 2.23921 3.84602 4.26843 
3.65911 4.22432 3.00055 3.13915 3.53916 3.54178 3.81654 3.96516 2.83165 
2.94113 3.56339 3.61666 3.1043 2.92691 4.17065 2.59126 3.98317 4.04124 
1.91239 2.21939 2.69389 4.21617 2.50712 3.07753 2.71695 1.8323 2.22761 
1.96177 3.11992 2.50838 2.45449 1.82122 2.47297 1.86505 1.66476 1.46539 
1.26242 2.7773 2.32063 2.20932 1.70364 2.22838 3.6035 3.52737 2.37041 
2.98977 3.50309 3.55758 1.75714 3.01141 3.44762 3.3615 3.55996 3.92472 
1.7414 1.58543 1.13785 2.73895 2.21077 2.56831 1.5168 1.40084 1.27533 
1.3785 1.78806 2.21744 1.92539 1.23593 0.862886 2.28453 1.67511 2.39763 
2.93395 3.7101 3.36934 2.10058 2.3507 2.55371 2.791 2.63688 2.65312 
2.41787 2.92354 2.74817 1.42971 2.02393 1.91601 1.68477 3.11565 3.20706 
3.33863 3.73789 3.26571 3.31861 3.19044 3.07028 2.98619 1.99564 2.49262 
2.40931 2.57441 2.79521 3.01539 2.37767 2.83933 2.2736 1.86313 2.40432 
2.34606 1.95499 3.07471 2.62895 2.75616 2.12052 2.13523 1.75594 2.40898 
2.42162 2.50367 2.39406 2.00069 2.4392 1.61193 2.0649 3.15088 3.11092 
2.76213 2.32062 2.37242 2.06505 2.55135 2.52111 2.39402 2.89405 3.83608 
3.93406 3.70065 2.8746 3.40729 2.79361 3.41064 3.38422 3.30503 2.40479 
2.85828 2.14845 2.45938 2.75171 2.65089 3.08086 1.43405 1.72605 1.71011 
2.4107 1.92921 1.96278 2.86408 2.80297 3.02201 3.06139 2.70782 3.12173 
3.40623 3.49135 3.63047 3.77016 1.94537 2.46303 3.84761 3.48683 1.31613 
0.915997 1.05929 0.82217 1.05148 1.33193 1.16163 0.910716 0.655383 0.73685 
0.500902 1.03864 0.638235 0.997607 0.896351 0.763683 1.12382 1.09244 1.21448 
1.26934 0.621576 0.393938 1.03655 0.826328 1.04476 1.24559 1.50514 0.69391 
0.888608 0.71161 0.502699 0.80769 1.02158 0.694571 0.910065 1.03101 1.24152 
1.06383 2.34672 2.41768 2.28617 1.61598 1.44315 1.64463 1.08358 1.1995 
0.86993 1.13972 1.26225 1.49813 1.4494 1.71407 1.55561 2.00289 1.82381 
1.85797 1.21128 1.74374 1.23016 1.53923 1.36782 1.50338 2.45163 2.45221 
1.45116 1.42129 1.67489 1.39634 2.52248 3.47624 3.8141 1.87448 2.59969 
2.63303 3.11162 2.1094 2.63358 2.37147 3.2288 3.55634 3.58476 2.19321 
1.5082 1.29413 1.64349 1.61549 1.50513 1.36222 1.30758 1.19617 1.42498 
1.36759 1.23588 1.05455 1.72229 4.05566 4.07284 4.13809 1.22657 1.39522 
2.39666 2.19444 2.6054 2.16448 1.90345 2.04714 1.78969 1.88911 1.74874 
1.97295 1.595 1.88629 2.53732 2.14553 2.86891 2.70277 1.97945 3.14596 
2.70266 2.01601 2.63846 1.60947 1.72621 2.97768 1.73637 1.62613 1.69356 
3.6225 3.73402 3.48989 1.27207 1.42986 1.46954 1.56535 1.50923 3.03772 
3.10371 2.88556 3.07689 3.48605 1.47443 1.26728 0.803558 1.13705 3.18975 
2.94769 2.15956 2.46711 2.02422 1.54872 2.81565 2.75809 2.92683 1.95535 
2.3941 1.98874 1.56152 1.90569 1.57265 1.6188 2.02374 1.94777 1.55388 
2.56276 2.54253 2.30916 1.49286 1.92724 1.89374 2.33056 2.3528 2.34084 
2.48379 2.18214 2.80658 2.6875 2.65206 0.971714 0.942038 1.23565 1.73986 
1.39442 1.49054 1.08014 0.642023 0.803786 1.37178 1.27166 1.58838 2.01911 
1.45503 1.13752 1.94282 1.81119 2.3828 2.51885 0.565642 1.77663 2.63558 
2.62148 0.890852 1.77798 1.39578 2.73443 1.78983 1.69768 1.38657 1.78985 
2.16125 1.72061 1.82181 1.49375 2.07775 1.91939 2.20142 1.98923 2.0102 
2.07481 2.2771 1.71301 1.18367 1.52474 1.52268 1.81909 2.13675 2.23382 
2.14708 2.10496 2.01386 1.80716 2.39481 2.06485 1.79351 2.02491 2.32442 
2.23009 2.05663 2.10637 1.90445 2.29068 2.24036 1.83963 2.01806 1.84934 
1.68063 1.75695 1.94707 1.82364 1.58758 1.47473 1.69969 2.10992 2.12155 
2.05795 2.3053 2.55327 2.57691 2.14017 1.67969 1.89215 2.09738 2.02156 
1.81702 1.79119 1.93103 1.97271 1.85752 0.55102 0.888379 0.872546 1.84197 
0.888671 0.554416 0.95785 1.15919 1.60318 1.44404 0.897891 1.13844 2.32097 
2.38004 0.963238 0.922518 1.17324 1.47792 2.24991 2.11434 0.625674 1.46316 
1.23743 1.02201 0.996489 0.69999 1.08899 1.0413 1.26486 1.65031 0.751059 
1.05316 1.45956 1.4047 1.2557 1.04505 1.06108 1.93998 0.796408 1.04664 
1.04951 1.05378 0.808174 1.67934 1.45158 1.42511 0.781331 1.91602 2.2369 
1.96261 1.53842 1.71439 1.69219 1.83281 1.52605 1.69208 1.42365 1.3216 
1.27378 1.36834 1.32532 1.22816 1.13815 1.08082 1.06282 1.21186 1.33036 
0.981976 0.919722 1.05762 1.10007 1.48888 1.373 1.35789 1.05059 1.08951 
1.33282 0.820409 1.0469 1.02775 1.2513 1.12337 1.04126 1.21387 1.22189 
1.03204 1.04324 0.870796 1.41945 0.838974 2.0789 2.17329 1.68103 2.58713 
2.36902 2.29673 2.42663 2.70461 2.21348 2.26044 2.90553 2.03209 3.48537 
3.53222 3.84369 4.00282 4.19183 2.77137 2.92631 1.66613 2.0455 2.90933 
3.52113 3.35904 3.41403 3.84823 3.86765 3.52982 3.94721 3.26787 1.91733 
3.32436 2.37765 3.62164 4.27007 4.33306 4.28274 2.44532 2.11264 1.68616 
3.11856 3.24356 1.91007 1.95591 2.90629 2.7189 2.93414 3.34472 3.90161 
4.12179 3.36778 3.46011 4.11587 4.24243 3.52607 3.2859 3.73921 3.4282 
2.48138 3.12554 3.23689 2.59463 2.30816 1.93025 1.94151 2.19559 2.87626 
2.24341 2.09775 2.78843 2.45474 3.00309 3.83948 4.14049 3.36986 3.77109 
3.18107 2.73667 4.02072 4.182 2.4891 2.05329 4.10748 4.10847 4.02144 
4.06617 3.93009 3.6899 2.41886 2.33894 2.43479 2.4177 4.32957 4.34031 
4.26027 4.26052 3.74231 3.9205 4.10793 4.19075 3.93801 3.54995 3.33881 
2.87047 3.72137 3.66554 3.71032 3.92672 3.90578 4.18357 4.07319 4.11647 
2.67009 2.52337 3.0612 2.70397 3.98889 3.98895 2.78882 
Rho 1 853 float
-0.0390998 -0.0182189 0.0096156 0.0111361 -0.0283223 -0.0876765 -0.10184 -0.0715189 -0.0288717 
0.0591137 0.230705 0.388077 0.396381 0.254587 0.0895251 0.0572371 0.226369 0.508774 
0.609138 0.424239 0.0653989 -0.253829 -0.334157 -0.272682 -0.396263 -0.738916 -0.817464 
-0.58286 -0.2862 -0.0833268 0.0450341 0.0506226 -0.185831 -0.444189 -0.376582 -0.204371 
-0.264632 -0.364167 -0.29888 -0.24092 -0.280416 -0.317064 -0.335712 -0.340691 -0.321254 
-0.285346 -0.291638 -0.394365 -0.535381 -0.658316 -0.733124 -0.779058 -0.840939 -0.816435 
-0.7278 -0.618713 -0.531145 -0.41251 -0.245128 -0.0983271 -0.111423 -0.0619242 -0.06274 
-0.0162839 0.00602395 0.00979773 -0.000655488 -0.0438008 -0.0593318 -0.0680575 -0.0373371 -0.0303275 
0.0160837 0.11059 0.209559 0.325281 0.369786 0.318035 0.224836 0.14323 0.0666476 
0.0912987 0.1745 0.331118 0.481489 0.490562 0.435943 0.181179 -0.0884063 -0.221273 
-0.307772 -0.26425 -0.199257 -0.293423 -0.560876 -0.743851 -0.652767 -0.53277 -0.384245 
-0.219152 -0.0817735 0.043413 0.0930844 -0.0125889 -0.25971 -0.429708 -0.341548 -0.18994 
-0.142456 -0.229859 -0.335851 -0.279837 -0.19062 -0.157011 -0.218583 -0.255068 -0.295111 
-0.331753 -0.349086 -0.350208 -0.324586 -0.311829 -0.286537 -0.340881 -0.448848 -0.548535 
-0.620265 -0.65518 -0.705719 -0.702731 -0.781138 -0.795931 -0.710262 -0.640871 -0.557771 
-0.540607 -0.459679 -0.357316 -0.276 -0.171375 -0.638971 -0.588546 -0.524027 -0.507905 
-0.473291 -0.452106 -0.406985 -0.408743 -0.374695 -0.345135 -0.178792 -0.270198 -0.34881 
-0.363285 -0.155423 -0.0358267 -0.116446 -0.381579 -0.273251 -0.168763 -0.410884 0.0232638 
0.0060293 -0.0853368 0.226893 0.137535 -0.3382 -0.16261 -0.474682 -0.220137 -0.067249 
-0.371812 0.00858258 0.0837983 -0.115979 -0.197006 -0.00544481 -0.112445 -0.0978257 0.236263 
0.139949 -0.371332 -0.237818 -0.296311 -0.161147 0.0519994 -0.305918 0.101965 0.0840853 
0.173117 -0.141232 0.0124741 -0.337056 -0.175439 -0.12001 -0.00358398 -0.0140582 -0.0355328 
-0.0543231 -0.0624234 -0.0162972 0.0555128 0.0962394 -0.0638171 -0.167401 0.11899 0.112877 
0.113972 0.102041 0.245423 -0.10185 -0.14492 0.241185 0.0375506 0.0174359 -0.256086 
-0.293804 0.0425331 0.0558304 -0.000876457 -0.0172631 0.0994576 0.0580505 0.143169 0.0654095 
-0.164265 -0.255797 -0.231973 -0.0198411 0.131777 0.134941 0.200532 -0.288974 -0.239934 
-0.304924 0.238518 0.308454 0.431366 0.381856 0.0721563 0.111698 -0.34966 -0.361672 
-0.360419 0.0958451 0.0676768 0.117762 0.15909 0.186096 0.17432 0.230857 0.0500396 
0.064936 0.0819809 0.0877664 0.0522657 -0.369797 -0.244687 -0.335293 0.137232 0.132147 
0.318632 0.143805 0.252389 -0.470069 -0.485844 -0.454512 -0.127083 -0.155829 -0.13505 
-0.0263338 0.0313676 0.324186 0.465627 -0.164829 -0.107565 0.581808 0.591436 0.530094 
0.421244 0.187992 0.30062 0.557232 0.57398 0.493481 0.503255 -0.292698 -0.234088 
-0.283065 0.378321 0.348674 0.550223 -0.27197 -0.23465 -0.317815 0.0802001 0.213927 
0.0184967 0.128876 0.121007 0.15329 -0.0102809 -0.0109268 -0.0451259 0.410979 0.39572 
0.39891 0.159684 0.101467 0.157009 0.360542 0.355642 0.310116 0.344592 0.368373 
0.297189 0.328802 -0.0497177 -0.116335 -0.0896499 0.0876299 0.156309 0.131231 -0.0781916 
-0.105489 -0.144276 0.223413 0.0313542 0.061525 0.00678292 -0.00978843 0.223813 0.294603 
0.268714 -0.0383787 -0.0209911 -0.00631012 0.00280006 -0.0252744 -0.0395138 0.0465763 0.167906 
0.169478 0.246956 0.356909 0.180634 0.192361 0.289157 0.313769 0.312509 0.245393 
0.267273 -0.182176 -0.171994 -0.149224 -0.16584 -0.0804103 -0.316939 -0.249868 -0.198759 
-0.141878 -0.174034 -0.202812 -0.0111724 -0.0174077 -0.00591591 -0.164093 -0.269865 -0.249374 
0.154687 0.018068 0.0257446 0.0898217 -0.0360699 -0.0143117 0.20008 0.245858 -0.341728 
-0.331856 -0.290708 -0.308387 -0.188812 -0.131211 -0.176278 -0.220242 -0.244172 -0.268241 
-0.30229 -0.312297 -0.329825 -0.222229 -0.257155 -0.253525 -0.224626 -0.169501 -0.251021 
-0.272854 -0.271145 -0.28842 -0.213358 -0.228322 -0.16089 -0.251011 -0.169192 -0.342934 
-0.420437 -0.50047 -0.588498 -0.658366 -0.807239 -0.820635 -0.770864 -0.663855 -0.235043 
-0.335455 -0.20686 -0.182613 -0.141766 -0.13113 -0.203137 -0.147609 -0.506546 -0.616486 
-0.73484 -0.762741 -0.666267 -0.580559 -0.561024 -0.47442 -0.464965 -0.37661 -0.368178 
-0.368456 -0.420367 -0.344285 -0.716484 -0.513841 -0.561133 -0.391301 -0.230428 -0.147064 
-0.253431 -0.312464 -0.314633 -0.338175 -0.369457 -0.131686 -0.105987 -0.326734 -0.239269 
-0.100436 -0.129754 -0.451659 -0.418934 -0.368361 0.0655131 0.0887197 0.0548517 -0.280433 
-0.264678 -0.204806 -0.570378 -0.621211 -0.672182 -0.616617 -0.65612 -0.681641 -0.52754 
-0.581434 -0.594995 -0.338542 -0.461777 0.099695 0.00160108 0.0285569 -0.633653 -0.588644 
-0.0652411 -0.143264 -0.14902 -0.332076 -0.395199 -0.320918 -0.380221 -0.391093 -0.403128 
-0.235421 -0.174658 -0.00968217 0.000780188 -0.296543 0.0776502 0.0142522 -0.0511155 0.0814901 
0.0773099 0.0719336 0.0514455 -0.533716 -0.48281 -0.0152896 -0.437016 -0.472109 -0.434877 
-0.0772623 0.0174905 -0.0275069 -0.303476 -0.30995 -0.334624 -0.520556 -0.540818 -0.22006 
-0.115568 -0.180436 -0.340314 -0.22019 -0.324469 -0.295836 -0.339877 -0.301629 -0.392341 
-0.421503 -0.0574806 -0.0366216 -0.0514264 -0.0524216 0.0245938 -0.0136878 0.00727307 -0.0769291 
-0.0515373 -0.0893911 -0.0921451 -0.0732399 -0.114655 -0.152086 -0.0841161 -0.090978 -0.100293 
0.00664956 -0.0164578 -0.0197725 -0.0635151 -0.0440919 -0.0690468 -0.0520505 -0.0653766 0.01242 
0.0125817 0.00465779 0.0223566 -0.0233346 -0.0162157 -0.203083 -0.222105 -0.163804 -0.195243 
-0.233455 -0.59192 -0.256718 -0.260557 -0.233281 -0.176094 -0.171105 -0.107834 -0.016002 
-0.191268 -0.236394 -0.0442752 -0.0436215 0.00296664 -0.0272926 -0.25985 -0.00328468 0.0193893 
-0.0368751 -0.280634 0.00917129 -0.00234749 -0.0206419 0.0100569 0.0139039 0.0145122 -0.0691627 
-0.0384739 0.00048987 -0.0146441 -0.00161874 0.0127515 -0.0366449 -0.0650197 -0.0357506 -0.0441798 
-0.0623524 -0.0830647 -0.0271911 -0.274337 -0.212982 -0.244197 -0.061326 -0.0907291 -0.0993183 
-0.0797892 -0.163285 -0.219043 -0.225064 -0.104974 -0.131287 -0.156316 -0.18968 -0.27113 
-0.224012 -0.256396 -0.314838 -0.313463 -0.328303 -0.323047 -0.443664 -0.406881 -0.380028 
-0.337011 -0.544502 -0.506113 -0.499725 -0.477429 -0.574705 -0.575901 -0.415792 -0.416596 
-0.460801 0.00256183 0.0384388 0.0215423 -0.367257 -0.355194 -0.372066 -0.387287 -0.403538 
-0.135175 -0.112098 -0.510578 -0.504588 -0.549483 -0.303289 -0.297969 -0.311225 -0.444488 
-0.323146 -0.326455 -0.334328 -0.315722 -0.453357 -0.476675 -0.342812 -0.343849 -0.309891 
-0.271978 -0.343156 -0.345434 -0.352176 -0.337502 -0.341576 -0.359663 -0.341549 -0.280298 
-0.339687 -0.319914 -0.334472 -0.334012 -0.294444 -0.304545 -0.318169 -0.364243 -0.304148 
-0.279028 -0.374458 -0.431433 -0.39459 -0.311118 -0.282294 -0.419494 -0.333279 -0.362118 
-0.426044 -0.49194 -0.464815 -0.365777 -0.358274 -0.359623 -0.275715 -0.473833 -0.206904 
-0.26876 -0.640708 -0.595778 -0.593464 -0.53925 -0.668278 -0.596545 -0.68794 -0.733303 
-0.676425 -0.73491 -0.758868 -0.779115 -0.816079 -0.830104 -0.81972 -0.790377 -0.729074 
-0.840405 -0.818695 -0.789512 -0.775757 -0.105302 -0.672867 -0.648631 -0.609742 -0.642048 
-0.35241 -0.600156 -0.554756 -0.676412 -0.495348 -0.747632 -0.742331 -0.702051 -0.740642 
-0.705253 -0.727916 -0.754406 -0.342674 -0.704625 0.0448373 -0.367894 -0.482925 0.262303 
0.155953 0.0057878 0.0470662 0.0516105 -0.0607002 -0.00478122 0.00779234 -0.299256 0.20667 
-0.0232552 0.103546 0.115598 0.106267 -0.0179335 -0.000245736 -0.0629419 0.00391153 -0.106164 
0.0786276 0.021573 0.00255049 -0.159084 -0.0997828 0.108323 0.10767 -0.0351277 -0.367746 
-0.020559 -0.214448 -0.265303 0.00367437 0.0794138 0.0652118 -0.0897866 -0.0938312 -0.255613 
0.368921 0.363019 -0.164835 -0.253921 -0.186867 -0.124389 -0.0284306 0.0939546 -0.162383 
-0.0580609 0.038203 0.0811084 0.117822 0.112992 0.222795 0.349517 -0.0881979 -0.178262 
-0.201975 -0.250093 -0.235998 0.0392584 0.0323506 -0.348996 -0.314199 -0.301663 0.165082 
-0.260879 -0.139408 0.0460728 -0.0697876 -0.000941721 0.0547811 0.110982 -0.0601371 0.0062974 
0.0241012 -0.117899 -0.121258 0.0539196 -0.0709841 -0.0582732 0.0130652 -0.057272 0.0890503 
0.0669166 -0.0104205 0.134761 -0.136367 -0.113543 -0.178791 -0.227733 0.100968 0.105277 
0.106225 0.086111 -0.0439115 0.00141929 0.111068 0.0848643 0.138928 -0.0301908 -0.146183 
-0.291035 0.13528 0.0711865 0.0733937 0.0688595 0.0879204 0.0874987 0.0702593 0.0862494 
-0.310591 -0.280371 -0.234364 -0.0685763 0.146983 0.0825524 -0.279984 
tcoords 2 853 float
20.2665 -1.93018 18.9053 -2.9059 17.4376 -3.88351 15.8596 -4.83522 14.1616 
-5.71628 12.3412 -6.475 10.4193 -7.06866 8.4296 -7.48126 6.40853 -7.72536 
4.37905 -7.83709 2.34636 -7.86127 0.298723 -7.83225 -1.79439 -7.75826 -3.96203 
-7.61587 -6.22605 -7.35624 -8.58762 -6.92319 -11.0248 -6.26939 -13.4848 -5.35364 
-15.8647 -4.14439 -18.0105 -2.65813 -19.7742 -0.958444 -21.0359 0.871382 -21.7069 
2.7352 -21.7309 4.52061 -21.0888 6.09526 -19.8431 7.29262 -18.1072 8.02802 
-15.9971 8.27625 -13.6397 8.03846 -11.1793 7.3357 -8.75606 6.24017 -6.45534 
4.94046 -4.26977 3.69443 -2.1576 2.6995 -0.0910577 2.0362 1.95036 1.69525 
3.98174 1.62989 6.0073 1.78437 8.01557 2.10488 9.97322 2.54561 11.8431 
3.0718 13.605 3.65326 15.2619 4.25468 16.8257 4.83138 18.3071 5.33742 
19.7022 5.73385 20.9941 5.99663 22.1595 6.11731 23.1749 6.09829 24.0224 
5.94703 24.6924 5.66883 25.1799 5.25629 25.4573 4.70751 25.4997 4.0751 
25.326 3.37419 24.9463 2.60476 24.3642 1.77364 23.5872 0.892982 22.6301 
-0.024156 21.5148 -0.967525 20.4081 -0.599737 19.5842 -1.30282 18.3919 -1.86414 
17.5947 -2.60144 16.204 -3.30092 15.1653 -4.00483 13.7816 -4.43649 12.7791 
-5.09958 11.1849 -5.52807 9.92828 -5.99529 8.42122 -6.07821 7.16223 -6.31667 
5.41734 -6.47373 4.14646 -6.69208 2.57013 -6.49246 1.29721 -6.69903 -0.511165 
-6.50852 -1.97311 -6.3918 -3.71631 -6.08737 -5.05685 -6.11093 -7.03471 -5.72922 
-8.55452 -5.3871 -10.3842 -4.6811 -11.8374 -4.29487 -13.8264 -3.38996 -15.0924 
-2.55984 -16.7585 -1.64393 -17.9779 -0.577138 -19.3302 0.589393 -19.8092 1.69403 
-20.551 2.69504 -20.7045 3.71846 -20.4616 4.75567 -19.9446 5.52251 -19.396 
6.25458 -18.487 6.73333 -17.0653 6.82905 -15.8655 6.84549 -14.2682 6.53441 
-12.6835 6.17488 -10.7425 5.39658 -9.23757 4.65065 -7.42995 3.58802 -6.0084 
2.95195 -3.89125 1.98504 -2.66774 1.42279 -0.415154 0.805356 0.80505 0.618146 
2.84003 0.441774 4.03407 0.403134 6.13003 0.553636 7.29186 0.758747 9.16787 
1.13694 10.2884 1.38623 12.1396 1.96303 13.1714 2.26678 14.7345 2.87244 
15.8124 3.2506 16.9681 3.92355 18.0041 4.21828 19.1867 4.75259 20.0421 
4.85611 20.9524 5.27553 21.7446 5.34737 22.622 5.54752 23.2265 5.48677 
23.8345 5.47802 24.2328 5.36682 24.6795 5.20619 24.8528 4.93077 25.0515 
4.67856 25.1105 4.3358 24.9815 3.88321 24.8586 3.43261 24.4308 2.9885 
24.1767 2.48253 23.495 1.88259 22.974 1.27357 22.0964 0.75294 21.5222 
0.0965026 24.6257 4.41435 24.4579 4.84357 24.3675 3.82457 23.7944 4.89043 
24.1518 4.50051 23.6047 3.09655 22.7724 4.73242 23.5085 4.15122 22.468 
2.20692 21.4132 4.33 19.2002 0.049401 20.9849 1.18771 17.8546 2.85993 
19.771 3.70017 -19.1496 4.53384 10.1782 -0.305923 12.9945 0.689868 22.4685 
3.5829 15.9142 1.8411 -19.5018 3.35917 -18.3394 5.49215 12.5153 -3.32977 
14.8956 -2.42255 17.1076 -1.13114 1.73258 -5.02371 -4.29028 -4.34443 5.04831 
0.948772 6.94272 -0.985416 -1.3622 1.58248 11.0847 2.12374 -18.0675 1.87144 
-16.2588 5.12313 9.95 -4.16508 4.4968 -4.95384 -0.204549 -0.997945 -3.98435 
0.106309 7.64467 -4.70419 11.4412 0.924585 3.55336 -1.15249 -0.913475 -4.76093 
-10.4382 -2.55564 21.1437 2.8733 5.13972 -0.448122 -1.92227 -0.0211942 -17.9585 
3.62824 -16.0875 0.496655 -13.9282 4.33373 -7.26736 -3.64382 -7.65739 1.62711 
-13.4268 -1.20808 -10.943 3.0859 11.9907 -0.897462 19.6738 2.0942 -15.9808 
2.778 8.50578 -0.282809 9.18301 -2.07548 -5.66182 1.05584 1.75339 -0.967835 
5.21783 -2.63947 -2.069 -2.28344 13.7704 -0.970616 -6.12566 -1.30023 0.839452 
-2.95706 15.4554 -0.677892 16.4881 0.427529 -9.06214 -3.69338 -8.31987 -1.80149 
-5.8565 -4.56751 -5.34329 -2.96238 -15.1665 -0.968024 -14.1107 0.618218 -11.8401 
0.710646 -12.2535 -2.52801 -11.4162 -1.05221 -9.5765 0.246061 -12.1668 4.43791 
-12.8845 2.68611 -9.07011 2.81293 3.08438 -3.15845 6.14531 -4.27343 7.50549 
-2.93243 -7.51742 -0.134823 10.9632 -2.33803 -2.58688 -4.1093 -0.858139 -3.14101 
14.6466 0.753811 17.9384 1.16214 -14.4569 2.17991 -3.81224 -1.90866 -9.64124 
-5.89551 -9.58595 -5.11523 -10.5941 -5.39689 4.525 0.709761 4.48772 -0.0111112 
5.09044 0.359928 -11.0478 -4.5449 -11.5496 -5.27743 -12.5914 -4.87356 -12.2575 
-5.84668 -8.60426 -6.17606 -9.79941 -6.62652 5.60016 0.788691 6.09604 1.12227 
5.41356 1.32835 -6.04857 -5.96446 -6.69489 -6.56188 -5.57627 -6.75545 -5.08157 
-7.50426 -4.60032 -6.88664 -10.4798 -3.76374 -11.1859 -3.51192 -7.7051 -6.37069 
-7.77894 -5.54248 -7.19606 -4.78107 -7.89482 -4.61449 -7.39561 -7.16449 -3.18799 