# vtk DataFile Version 3.0
vtk output
ASCII
DATASET POLYDATA
POINTS 853 float
-15.5423 -5.8402 -23.6951 -15.3897 -4.4625 -23.624 -15.4116 -3.11744 -23.6502 
-15.5633 -1.87743 -23.5798 -15.6672 -0.692817 -23.3179 -15.681 0.64759 -22.8224 
-15.5375 2.23699 -22.0645 -15.3458 4.01182 -21.2844 -15.3706 5.78289 -20.616 
-15.2985 7.50012 -19.7472 -14.9821 9.48429 -18.5264 -14.7568 11.6339 -17.0232 
-14.6907 13.7659 -15.349 -14.7741 15.9399 -13.3988 -14.8561 17.6976 -11.4192 
-14.674 19.066 -9.3574 -14.4724 20.2528 -6.83474 -14.4053 20.945 -4.02626 
-14.1605 21.0174 -1.33412 -13.7174 20.604 0.874029 -13.0811 20.0269 2.43632 
-12.5516 19.3551 3.63547 -12.0446 18.3364 4.60401 -11.4656 16.8475 5.13001 
-10.9598 15.1065 5.04861 -10.7381 13.4466 4.40095 -10.5824 11.8832 3.4478 
-9.9256 10.226 2.38272 -8.72955 8.60808 1.26868 -7.71597 7.58745 -0.15904 
-7.04144 7.23268 -2.01307 -6.71487 7.08582 -4.23652 -6.70428 6.46832 -6.27965 
-7.06701 5.57469 -8.00612 -7.57941 4.48281 -9.48551 -7.93275 3.16902 -10.6664 
-8.23029 1.67766 -11.6647 -8.66189 0.062849 -12.6368 -9.1062 -1.62174 -13.741 
-9.44289 -3.28156 -15.0266 -9.86672 -4.79496 -16.3593 -10.5694 -6.30581 -17.4986 
-11.4789 -7.96607 -18.4493 -12.2898 -9.63534 -19.2637 -12.8658 -11.212 -19.914 
-13.3201 -12.7436 -20.3893 -13.6605 -14.1936 -20.7841 -13.9201 -15.3815 -21.2252 
-14.2004 -16.2589 -21.7374 -14.5526 -16.8491 -22.34 -15.022 -17.04 -22.9528 
-15.5118 -16.6813 -23.4739 -15.944 -15.9455 -23.8459 -16.2155 -15.0701 -24.0131 
-16.294 -14.0855 -24.0372 -16.2062 -12.8788 -23.9482 -16.0324 -11.446 -23.8359 
-15.8741 -9.94619 -23.7459 -15.7774 -8.46788 -23.7286 -15.6844 -7.14641 -23.759 
-15.2283 -6.97274 -23.1676 -15.121 -6.05654 -23.2275 -14.8852 -5.06003 -22.8773 
-14.9466 -4.14771 -23.041 -14.9245 -3.10094 -22.8762 -15.1129 -2.32538 -23.0117 
-14.8944 -1.42019 -22.436 -15.0914 -0.577287 -22.423 -14.8339 0.669391 -21.721 
-14.8391 1.84042 -21.3951 -14.4341 3.00407 -20.6345 -14.5146 4.15394 -20.3375 
-14.5413 5.69134 -19.7188 -14.6338 7.05092 -19.2446 -14.1707 8.33896 -18.166 
-14.2461 9.76598 -17.4133 -13.9858 11.5012 -15.9551 -13.9687 13.257 -14.5194 
-13.8736 14.66 -12.946 -14.1005 15.8629 -11.8357 -13.9425 17.0359 -10.1337 
-13.7872 17.9936 -8.53007 -13.4433 18.6471 -6.75314 -13.5965 19.2421 -5.13686 
-13.4556 19.4989 -2.95532 -13.3002 19.335 -1.43948 -13.039 19.183 0.141165 
-12.9269 18.8179 1.37845 -12.6821 18.5944 2.53026 -12.4602 18.098 3.09862 
-12.2438 17.7786 3.8783 -11.9582 17.0658 4.33495 -11.5265 16.0038 4.45909 
-11.2077 15.0265 4.27475 -11.062 14.1202 4.03983 -10.8829 13.2199 3.48372 
-10.5437 12.2502 2.63518 -10.0322 11.3698 1.98511 -9.41558 10.4863 1.1163 
-8.1864 9.53746 0.236458 -7.40074 9.09194 -1.1452 -6.95695 9.03718 -2.59777 
-7.00203 9.04644 -4.26843 -6.97974 8.47108 -5.5436 -7.28104 7.66009 -7.30069 
-7.60608 7.08036 -8.39832 -8.20884 5.9016 -10.1183 -8.37877 4.97336 -10.9038 
-8.58301 3.54246 -11.9665 -8.70268 2.58322 -12.5019 -9.10077 0.952128 -13.4502 
-9.35507 -0.0953059 -13.9697 -9.66523 -1.6668 -14.9589 -9.84175 -2.65462 -15.7038 
-10.1792 -4.16889 -16.9106 -10.6148 -5.02394 -17.6014 -11.2877 -6.48011 -18.4517 
-11.899 -7.55234 -19.0316 -12.3223 -8.83733 -19.5498 -12.8756 -9.93263 -20.0562 
-13.3115 -11.309 -20.4946 -13.6383 -12.0693 -20.8022 -13.8713 -13.234 -21.0358 
-14.1277 -14.1118 -21.286 -14.3394 -15.1822 -21.5995 -14.5368 -15.7186 -21.9794 
-14.7643 -16.2291 -22.3657 -14.9918 -16.4278 -22.7238 -15.3029 -16.5286 -23.1427 
-15.5076 -16.1817 -23.3908 -15.7336 -15.8867 -23.6409 -15.8839 -15.357 -23.7842 
-15.926 -14.6151 -23.7769 -15.9387 -13.8684 -23.7635 -15.802 -13.0518 -23.5907 
-15.7702 -12.1978 -23.5696 -15.5927 -10.9769 -23.3946 -15.5473 -9.84456 -23.39 
-15.3977 -8.88153 -23.2054 -15.4076 -8.01468 -23.3084 -15.5564 -15.2686 -23.4208 
-15.3358 -15.8264 -23.0809 -15.55 -14.0805 -23.3465 -14.9975 -15.3275 -22.5535 
-15.2426 -14.959 -22.9882 -15.3524 -12.4896 -23.0842 -14.6505 -14.1418 -21.9974 
-15.05 -13.8878 -22.6674 -15.1205 -10.5799 -22.8321 -14.2385 -12.4447 -21.5439 
-14.4831 -6.98553 -22.3141 -14.857 -8.76947 -22.6109 -12.917 -8.54378 -20.3027 
-13.6785 -10.581 -21.0483 -11.564 15.4819 3.53763 -10.522 -1.44121 -16.6691 
-11.0333 -3.88522 -18.0875 -14.786 -12.2872 -22.3017 -12.2435 -6.56049 -19.4937 
-11.9974 16.6648 3.41084 -11.1057 14.1754 3.17014 -13.5433 -1.31467 -20.7538 
-13.9757 -3.21834 -21.6259 -14.0566 -5.08829 -21.8439 -12.9054 8.47997 -16.6738 
-12.6101 13.8771 -11.5344 -8.67469 1.4381 -12.5336 -10.0804 1.33604 -15.3971 
-7.63487 5.89057 -9.01878 -9.81202 -3.65577 -16.0285 -12.1716 16.9796 1.97662 
-10.4995 13.1398 1.72974 -13.2557 0.905415 -20.0088 -13.1042 5.82943 -18.2752 
-9.54111 7.41181 -11.9787 -8.50313 9.50567 -8.4815 -13.2856 2.70519 -19.5743 
-10.3282 -3.0863 -16.843 -9.56583 4.12942 -13.8445 -12.604 10.8557 -14.6636 
-12.0247 17.0154 -5.66693 -14.4364 -10.5554 -21.9588 -9.35298 2.38152 -13.87 
-8.73506 7.9629 -9.98154 -11.5518 15.5267 2.40332 -12.1476 17.1124 0.150459 
-9.68518 12.3288 0.0434415 -12.1754 15.5851 -8.81379 -7.90589 11.0895 -5.18952 
-12.2169 17.5112 -2.5516 -8.39575 11.7811 -2.37386 -11.5 -2.32422 -18.3907 
-13.9646 -8.94281 -21.574 -11.3046 15.0911 0.775019 -10.0404 -0.237802 -15.5159 
-11.2198 0.433462 -17.4737 -8.02214 10.1008 -6.86344 -9.48324 5.54885 -13.0714 
-10.9868 3.70355 -16.37 -10.4879 10.151 -11.7676 -12.3886 -3.42356 -19.679 
-9.89402 12.6346 -8.15729 -11.0796 8.03971 -14.4624 -12.9867 -4.5701 -20.4959 
-12.8931 -5.8653 -20.4257 -12.4697 16.9917 -7.39009 -10.7667 14.8712 -6.90437 
-12.9269 15.2662 -10.4847 -11.4877 13.5762 -9.93157 -12.5433 18.011 -0.976967 
-11.4381 16.1465 -1.41632 -10.5707 14.9251 -2.9951 -12.6117 18.0943 -4.09667 
-11.473 16.3999 -4.14581 -9.67799 13.8977 -4.76778 -8.42838 11.0215 -0.892198 
-9.83301 13.4335 -1.4301 -7.6877 10.9264 -3.70293 -11.1646 6.07804 -15.7424 
-12.844 3.62419 -18.7629 -11.7141 1.92359 -17.9683 -9.10946 12.7229 -6.37532 
-11.9624 -0.705099 -18.7404 -12.208 12.1117 -12.8295 -11.2407 9.87693 -13.4033 
-11.8807 -4.96011 -19.1401 -13.3896 -7.22895 -20.9973 -10.9595 14.8177 -0.562211 
-10.3878 11.3114 -10.3409 -14.1944 19.0867 -7.88192 -13.6574 18.4791 -7.57082 
-13.9655 19.3297 -6.8391 -8.65641 1.98913 -12.4693 -8.98512 2.55635 -13.0978 
-8.92618 1.84814 -13.0456 -13.5234 18.9652 -6.05294 -14.0806 19.8262 -5.84839 
-14.0636 20.0883 -4.65436 -14.4751 20.6853 -5.39341 -14.3118 18.569 -8.93445 
-14.5514 19.6764 -8.19011 -8.87162 1.16614 -12.9635 -8.892 0.543489 -13.007 
-8.63973 0.883679 -12.4808 -14.0677 16.495 -11.0142 -14.4826 17.4214 -10.7724 
-14.5486 16.7395 -11.7165 -14.8584 16.9025 -12.3867 -14.5244 16.0342 -12.5577 
-12.8464 17.9929 -6.25556 -12.9289 18.2599 -5.44096 -14.3947 18.0296 -9.84951 
-13.8467 17.4983 -9.34543 -13.1879 16.4329 -9.51642 -13.105 16.8873 -8.76042 
-14.7864 18.4096 -10.4215 -7.45317 7.33943 -7.93142 -7.80533 8.5367 -7.83451 
-7.97068 8.13023 -8.45851 -12.9805 17.8368 -7.10165 -12.2008 16.9922 -6.63451 
-13.2762 19.7017 1.22854 -13.0882 19.4832 1.8896 -13.4009 20.3294 1.71484 
-7.59996 6.44164 -8.7036 -7.3532 5.66952 -8.56936 -7.29612 6.36134 -8.15001 
-11.8253 16.1614 2.8654 -11.5985 15.5353 3.0431 -11.747 15.996 3.46604 
-12.8566 19.2468 2.51581 -12.7941 18.6433 2.02034 -12.9765 18.985 0.779425 
-13.4126 19.9022 0.518326 -12.6535 19.0047 3.02276 -12.7833 19.699 3.06455 
-13.8568 20.2865 -2.23765 -14.2817 21.0543 -2.68286 -13.9586 20.2428 -3.39052 
-13.5668 19.4614 -4.03892 -12.411 17.6825 -4.81933 -13.0655 18.6323 -4.54773 
-13.5883 20.091 -0.380872 -13.6625 20.0436 -1.32394 -13.2312 19.3903 -0.691129 
-13.3969 19.459 -2.08061 -8.91872 11.5348 -0.471415 -8.23022 10.288 -0.349901 
-8.81218 10.7736 0.148682 -12.907 18.6684 -1.17346 -12.7692 18.5497 -0.412048 
-13.9947 20.8396 -0.119909 -9.47071 1.15654 -14.2011 -9.61874 0.588805 -14.5096 
-9.22012 0.515723 -13.6704 -12.0753 17.1998 -1.18917 -12.4331 17.7969 -1.64856 
-11.7836 16.7768 -1.9799 -12.807 14.6316 -11.0056 -13.5154 15.5802 -11.1124 
-13.4514 14.9472 -11.7606 -11.9729 3.62159 -17.7672 -12.1551 2.7655 -18.2797 
-11.2996 2.6813 -17.1714 -14.7017 12.6944 -16.2108 -14.4339 11.6353 -16.4744 
-14.4016 12.6341 -15.7072 -14.3991 7.6608 -18.7344 -14.0861 6.47618 -18.9839 
-13.7436 7.22348 -18.2954 -14.5224 10.6193 -17.2564 -14.0833 10.4732 -16.768 
-14.444 14.5325 -14.1054 -14.7154 14.8377 -14.4265 -14.4216 13.5772 -14.9601 
-14.6079 9.71373 -17.9088 -14.8514 10.5866 -17.7898 -9.54335 4.83162 -13.5431 
-9.01711 3.88014 -12.8259 -8.94179 4.49426 -12.431 -14.9982 7.26799 -19.5006 
-14.8575 8.09691 -18.9905 -15.1723 8.41976 -19.1944 -14.5638 -5.14494 -22.4676 
-14.6746 -5.87741 -22.6016 -14.2349 -6.08447 -22.0321 -14.6016 8.81909 -18.3786 
-15.0465 6.54327 -19.8598 -14.5895 6.37824 -19.4943 -15.3583 6.63458 -20.2137 
-15.0557 5.76867 -20.211 -13.6208 8.23532 -17.6291 -13.7447 9.26698 -17.1397 
-14.1961 9.05648 -17.7924 -14.627 -4.46725 -22.5917 -14.4973 -3.968 -22.385 
-14.9002 -3.69892 -22.9307 -13.1676 -3.27624 -20.611 -13.3773 -4.02799 -20.9494 
-12.7233 -4.03631 -20.1357 -13.8604 5.55444 -19.1339 -11.9374 8.30682 -15.5678 
-11.8858 9.44662 -14.7269 -12.6917 9.75022 -15.5882 -13.968 12.4384 -15.2339 
-13.3177 14.3035 -12.3198 -14.0296 15.2799 -12.4717 -13.3034 12.0771 -14.6077 
-13.3661 11.2125 -15.3904 -13.4694 10.0934 -16.2931 -14.3649 15.2227 -13.2275 
-13.9387 14.0859 -13.6662 -8.65001 2.99434 -12.2859 -9.02885 3.26956 -13.0329 
-10.0081 3.02278 -14.9644 -9.48827 3.27684 -13.9502 -10.2204 4.0867 -15.0333 
-8.47624 1.48454 -12.1126 -8.46234 2.19709 -12.0265 -8.34883 2.65668 -11.6775 
-8.47805 4.24713 -11.4547 -8.23521 3.33112 -11.2198 -8.09692 4.05142 -10.6548 
-13.7447 3.90185 -19.6239 -13.8461 3.40635 -19.9215 -13.0198 3.0401 -19.1688 
-8.84832 6.02798 -11.3925 -8.29704 5.52345 -10.4696 -8.72094 6.53154 -10.8296 
-12.924 7.09387 -17.4932 -10.2723 5.89353 -14.3862 -10.2381 6.74524 -13.8322 
-11.1125 7.05408 -15.1381 -15.0465 4.93743 -20.5709 -14.5073 4.87254 -20.026 
-12.4774 11.5721 -13.8452 -13.2143 12.7683 -13.8003 -9.02748 -0.0664421 -13.2724 
[...]
POINT_DATA 853
FIELD FieldData 3
Radius 1 853 float
1.66005 1.59766 1.55432 1.49755 1.43322 1.43692 1.50014 1.60474 1.72304 
1.8134 1.86438 1.85127 1.78228 1.71214 1.70777 1.75445 1.80747 1.78673 
1.61565 1.27526 0.962355 0.699637 0.530886 0.417843 0.403355 0.567761 0.77276 
1.03551 1.37915 1.7182 1.99661 2.09743 1.95838 1.77556 1.61484 1.40075 
1.13891 0.896398 0.712798 0.595267 0.558468 0.570997 0.603365 0.651075 0.698266 
0.72611 0.721439 0.741285 0.783514 0.823413 0.833535 0.894499 1.02049 1.15052 
1.27236 1.38646 1.50675 1.61001 1.68124 1.69564 2.21968 2.16721 2.29517 
2.17235 2.2217 2.08112 2.31137 2.1713 2.33282 2.29439 2.54446 2.52204 
2.60612 2.55524 2.85006 2.6953 2.83263 2.76883 2.87072 2.7325 2.89528 
2.98755 3.16503 3.01946 2.94315 2.81603 2.45267 2.05557 1.59273 1.42871 
1.10596 0.9295 0.83826 0.868362 0.920605 1.09907 1.3755 1.60175 1.93502 
2.36073 2.83353 3.16101 3.36968 3.23077 2.99668 2.8771 2.73365 2.55052 
2.25406 2.03195 1.73032 1.53001 1.31809 1.2353 1.15121 1.18191 1.15036 
1.18072 1.12686 1.20486 1.19528 1.26773 1.1997 1.20947 1.17172 1.22824 
1.22553 1.2077 1.11511 1.20388 1.20318 1.31414 1.50785 1.61956 1.7905 
1.82188 1.97495 2.00766 2.1589 2.11937 1.50741 1.4054 1.77447 1.51624 
1.63265 2.00015 1.57751 1.80178 2.19031 1.64647 2.4512 2.35318 1.63338 
1.68026 1.19867 1.91747 1.7225 1.95831 1.66441 1.33102 1.25143 2.75642 
2.62527 2.53739 3.62074 3.80276 1.57144 2.30594 2.43845 0.966037 1.95653 
1.71454 2.87518 3.30795 3.50934 3.68992 2.96462 1.49599 2.85876 3.78499 
4.05619 2.08928 2.29747 3.35729 1.62968 2.72477 2.36362 4.09931 3.90063 
3.54952 3.33347 2.22852 2.15473 2.22074 1.91233 2.56982 3.81255 3.17245 
3.12042 4.03273 2.37124 4.35638 3.93566 2.38877 2.1606 3.92133 4.40681 
3.66753 4.21185 3.07612 3.21342 3.65553 3.63907 3.96605 4.11705 2.83149 
2.97548 3.641 3.63084 3.13485 2.92385 4.26917 2.61789 3.94352 4.05927 
1.87029 2.15715 2.73107 4.15591 2.39586 3.0182 2.61626 1.79503 2.18417 
1.92123 3.08749 2.44117 2.44907 1.80927 2.37664 1.78229 1.63264 1.42718 
1.24066 2.78101 2.30639 2.21066 1.70027 2.20599 3.64936 3.58069 2.31697 
2.96175 3.52661 3.58265 1.72785 2.9194 3.36733 3.26662 3.58377 4.03069 
1.75466 1.57265 1.11151 2.65567 2.14997 2.48746 1.51667 1.38829 1.26419 
1.37714 1.81341 2.26534 1.95576 1.23391 0.829825 2.34833 1.73072 2.43808 
2.97211 3.81747 3.4284 2.15717 2.41599 2.62611 2.86911 2.63664 2.64789 
2.41622 3.00217 2.8192 1.44386 1.99027 1.89391 1.65407 3.19246 3.293 
3.43154 3.72142 3.26292 3.29171 3.19689 3.07628 2.97426 1.82023 2.34496 
2.24076 2.68356 2.90243 3.1184 2.28334 2.78738 2.16234 1.74453 2.24482 
2.32992 1.86789 3.03003 2.58285 2.71281 2.24375 2.22971 1.84517 2.45022 
2.41671 2.47982 2.45017 2.13391 2.55691 1.77131 2.19826 3.22942 3.14402 
2.80294 2.41455 2.46879 2.20764 2.58649 2.54582 2.38502 2.98376 3.90305 
3.9877 3.7493 2.75769 3.35974 2.76142 3.35633 3.3509 3.31431 2.35199 
2.77091 2.1175 2.41491 2.70958 2.6021 3.04122 1.39357 1.6988 1.69931 
2.38968 1.91543 1.97375 2.91998 2.84864 3.04813 3.01965 2.67316 3.07179 
3.48835 3.47529 3.62765 3.80257 2.05161 2.55637 3.83046 3.42057 1.28751 
0.886343 1.03246 0.789484 1.08313 1.36814 1.201 0.890441 0.64343 0.712083 
0.469218 1.01417 0.601685 1.03605 0.922067 0.786226 1.1015 1.07763 1.20402 
1.25839 0.619381 0.388882 1.02666 0.823414 1.03436 1.23149 1.518 0.693582 
0.880865 0.702257 0.476837 0.793103 1.02329 0.667658 0.900866 1.02226 1.22375 
1.0511 2.27544 2.34098 2.17742 1.63096 1.44611 1.66709 1.07026 1.18752 
0.888438 1.15389 1.28422 1.50976 1.4761 1.73215 1.57286 2.02819 1.83715 
1.8862 1.21162 1.733 1.22899 1.52694 1.35291 1.47734 2.40344 2.37961 
1.429 1.39301 1.64303 1.39201 2.44939 3.4315 3.76477 1.86883 2.57989 
2.64958 3.09169 2.06985 2.58405 2.34695 3.32616 3.64717 3.64864 2.18594 
1.50999 1.28009 1.64993 1.64733 1.54832 1.33072 1.25578 1.16404 1.40159 
1.35194 1.2359 1.00644 1.69544 4.05075 4.06607 4.10738 1.22766 1.37553 
2.38915 2.15573 2.59446 2.16599 1.90357 2.0303 1.78224 1.88302 1.72485 
1.94025 1.54991 1.87202 2.57193 2.14066 2.99964 2.79016 2.04049 3.26182 
2.82144 2.07667 2.72871 1.59468 1.71199 3.0234 1.71412 1.59868 1.66458 
3.71583 3.82834 3.54669 1.22446 1.39983 1.4383 1.53525 1.47604 3.04559 
3.11593 2.88463 3.01477 3.43136 1.46632 1.23439 0.79238 1.14095 3.09895 
2.8736 2.20457 2.52169 2.09888 1.66945 2.82164 2.75952 2.92666 1.96854 
2.40417 1.97839 1.54671 1.92097 1.59266 1.62944 1.9393 1.89857 1.46222 
2.56799 2.51523 2.25999 1.42661 1.85274 1.81209 2.27199 2.3291 2.3912 
2.51808 2.2001 2.79842 2.65623 2.62358 0.994356 0.964773 1.26409 1.73612 
1.40085 1.46122 1.08434 0.649055 0.821636 1.40065 1.31057 1.621 1.97349 
1.46576 1.16029 1.9689 1.84628 2.47355 2.57619 0.560577 1.80464 2.68402 
2.6079 0.904245 1.81069 1.46565 2.73567 1.92651 1.82681 1.52726 1.826 
2.26146 1.88414 1.94025 1.57639 2.15298 1.93624 2.22128 2.05687 1.96043 
1.96254 2.20677 1.63344 1.18092 1.51355 1.49377 1.68083 1.99704 2.18584 
2.12582 2.03291 1.93556 1.74749 2.35516 1.95102 1.69827 1.94225 2.27489 
2.15593 1.99851 2.0784 1.88651 2.27376 2.20945 1.82599 2.01001 1.85352 
1.65128 1.70918 1.90298 1.78517 1.55994 1.45149 1.65419 2.09497 2.10194 
2.02763 2.3304 2.58694 2.61302 2.12712 1.69719 1.92108 2.10358 2.01734 
1.80783 1.80836 1.90255 1.93559 1.81301 0.563518 0.900073 0.885535 1.82411 
0.894795 0.582706 0.959709 1.14385 1.56684 1.4059 0.91185 1.14877 2.30841 
2.34282 0.956641 0.93312 1.1863 1.47386 2.25491 2.13208 0.625697 1.4265 
1.22076 0.987694 0.973593 0.676898 1.055 1.0007 1.2378 1.63363 0.714292 
1.00153 1.41804 1.35519 1.20292 0.990523 1.00162 1.9267 0.728312 0.989344 
0.995936 1.01199 0.760182 1.68993 1.45638 1.4361 0.721743 1.89803 2.16117 
1.89909 1.55018 1.70632 1.6616 1.81748 1.57923 1.70735 1.47891 1.41441 
1.32689 1.42139 1.41338 1.33876 1.2532 1.174 1.1111 1.27046 1.34578 
1.0857 0.956975 1.06888 1.21345 1.51924 1.3487 1.30814 1.06219 1.10931 
1.34735 0.806128 1.03497 1.02687 1.21389 1.07358 0.997489 1.15454 1.20485 
1.03157 0.993493 0.851494 1.4093 0.827799 2.12695 2.18503 1.68211 2.65168 
2.4255 2.35127 2.46194 2.72467 2.22232 2.2817 2.97643 1.9924 3.42202 
3.54326 3.87322 4.00319 4.21821 2.79856 2.93009 1.70108 2.08082 2.8684 
3.56143 3.37568 3.40594 3.79367 3.84051 3.54662 4.02601 3.30635 1.93352 
3.29509 2.33921 3.53222 4.23419 4.33439 4.24407 2.49135 2.14651 1.66112 
3.20576 3.33495 1.91204 1.93517 2.96159 2.77169 3.00041 3.3592 3.82878 
4.07045 3.44087 3.55398 4.23833 4.34601 3.63466 3.36462 3.87696 3.51088 
2.50759 3.1608 3.30902 2.61566 2.33971 1.92463 1.90619 2.15908 2.94595 
2.23659 2.09058 2.79532 2.45311 3.01065 3.88923 4.29732 3.33914 3.77686 
3.2263 2.7087 3.95055 4.13188 2.4868 2.05971 4.11224 4.07013 4.11359 
4.11666 3.93565 3.7505 2.37203 2.28396 2.38406 2.36448 4.39001 4.43454 
4.38397 4.33008 3.88713 4.08598 4.07818 4.14138 3.88626 3.66773 3.43121 
2.88149 3.84938 3.7958 3.79946 4.03782 4.05828 4.34406 4.24654 4.24874 
2.68101 2.53505 3.12184 2.69182 4.0125 4.02478 2.82197 
Rho 1 853 float
0.245265 0.15158 0.188504 0.233461 0.125777 -0.057802 -0.100638 -0.0242668 -0.0186541 
-0.00512741 0.226664 0.555746 0.590639 0.288107 0.0894948 0.183974 0.396623 0.601409 
0.747644 0.634512 0.231418 -0.135225 -0.142306 -0.0452634 -0.183289 -0.523559 -0.692763 
-0.565975 -0.266961 -0.0724689 -0.00155487 -0.0389016 -0.277592 -0.534696 -0.449263 -0.247193 
-0.275812 -0.367262 -0.335684 -0.283821 -0.259087 -0.24326 -0.295378 -0.399564 -0.472822 
-0.476456 -0.496411 -0.615681 -0.76962 -0.867178 -0.880957 -0.887375 -0.913822 -0.813327 
-0.611279 -0.417347 -0.299034 -0.14371 0.106266 0.278464 0.195781 0.146298 0.0629418 
0.113534 0.172724 0.205828 0.126932 0.0190606 -0.0544651 -0.0446693 0.0274666 0.0208314 
-0.0179956 0.0325228 0.187687 0.420249 0.555638 0.443633 0.197452 0.0678235 0.0921672 
0.26431 0.355932 0.418169 0.527318 0.592857 0.602926 0.320592 -0.0031496 -0.189029 
-0.199171 -0.10133 -0.0743583 -0.196324 -0.392865 -0.609431 -0.63839 -0.573103 -0.409129 
-0.206984 -0.0911894 -0.0187641 0.0200485 -0.0802117 -0.329721 -0.508294 -0.399082 -0.232672 
-0.17606 -0.249797 -0.341375 -0.306103 -0.24541 -0.214703 -0.216978 -0.214486 -0.242647 
-0.301655 -0.360413 -0.43729 -0.478934 -0.461656 -0.464042 -0.524916 -0.664369 -0.764961 
-0.829495 -0.826974 -0.835267 -0.81302 -0.872138 -0.845144 -0.673254 -0.499408 -0.386186 
-0.33013 -0.232737 -0.0723488 0.0494639 0.198382 -0.706943 -0.720407 -0.479503 -0.669491 
-0.562234 -0.320362 -0.542793 -0.448133 -0.165345 -0.428341 -0.0287589 -0.0192255 -0.35034 
-0.411923 -0.190417 -0.0882698 -0.126875 -0.346862 -0.264098 -0.173123 -0.418635 0.0452057 
0.0922427 -0.0230534 0.289788 0.0306353 -0.338373 -0.183165 -0.556635 -0.248333 -0.0953116 
-0.464831 0.0278752 0.0386885 -0.11611 -0.247668 0.052795 -0.151936 -0.135768 0.365701 
0.222547 -0.280065 -0.258715 -0.349362 -0.286803 0.105616 -0.340453 0.154955 0.0642877 
0.189488 -0.157623 -0.0196048 -0.252468 -0.262121 -0.162536 -0.0256028 -0.0301766 -0.054109 
-0.0851478 -0.0632668 -0.0213187 0.0554459 0.15035 -0.0654521 -0.178835 0.290126 0.207191 
0.0255635 0.0185014 0.342474 -0.0682758 -0.151338 0.241155 0.0237376 0.0312795 -0.249439 
-0.289403 -0.000654587 0.0375384 0.00541051 -0.00696706 0.139032 0.0325557 0.161008 0.132931 
-0.163886 -0.22701 -0.24055 -0.0829801 0.320523 0.331399 0.380904 -0.297827 -0.260396 
-0.31344 0.379872 0.4447 0.52196 0.506069 0.226697 0.284514 -0.350527 -0.363877 
-0.357737 0.0519545 0.0794137 0.0827778 0.143484 0.151745 0.31898 0.315915 0.135809 
0.173462 0.122388 0.213266 0.110076 -0.445391 -0.301651 -0.402095 0.321367 0.279267 
0.511649 0.309178 0.449673 -0.552395 -0.573863 -0.540635 -0.214609 -0.245664 -0.170598 
0.104689 0.137926 0.48964 0.662931 -0.064661 0.02608 0.670507 0.687264 0.60189 
0.4708 0.215069 0.33578 0.727151 0.696152 0.633925 0.574664 -0.294722 -0.225675 
-0.289938 0.482087 0.479009 0.741935 -0.286305 -0.257974 -0.330195 0.145173 0.277324 
0.0489095 0.0136243 0.028365 0.0494526 -0.0265557 0.0029497 -0.0547563 0.617432 0.585286 
0.603929 0.101047 0.0339794 0.116609 0.493498 0.5038 0.399568 0.475763 0.536653 
0.352218 0.420647 -0.0823575 -0.151397 -0.122938 0.0124849 0.0963872 0.0702408 0.021037 
0.0257485 -0.0565916 0.206382 -0.0228494 -0.00759397 -0.0262074 -0.0209448 0.238138 0.379911 
0.301276 0.0682811 0.0923938 0.135933 0.0295134 0.0042048 -0.0402462 -0.0029404 0.232699 
0.267148 0.365386 0.536885 0.106876 0.128584 0.428686 0.476047 0.449834 0.247815 
0.310545 -0.209048 -0.202671 -0.179275 -0.198295 -0.118853 -0.318758 -0.263809 -0.223227 
-0.180186 -0.210322 -0.249974 0.0205335 0.0435889 0.0346806 -0.191196 -0.319435 -0.28567 
0.145494 0.00294935 0.0377187 0.108069 -0.00379641 -0.00174524 0.294096 0.31949 -0.355464 
-0.175295 -0.156164 -0.11795 -0.234712 -0.182781 -0.210952 -0.0733213 -0.0465614 -0.0634696 
-0.08294 -0.196904 -0.177244 -0.234493 -0.24351 -0.261949 -0.13086 -0.113493 -0.173026 
-0.209026 -0.0887818 -0.0674847 -0.185383 -0.121203 -0.126582 -0.187136 -0.118415 -0.178691 
-0.286053 -0.302186 -0.363683 -0.452664 -0.667802 -0.640795 -0.585943 -0.510024 -0.274859 
-0.288228 0.123633 0.10692 0.208758 -0.182654 -0.196036 -0.14953 -0.408933 -0.539582 
-0.669919 -0.684551 -0.643821 -0.606865 -0.575527 -0.513433 -0.472167 -0.308151 -0.388049 
-0.362384 -0.40878 -0.338962 -0.639925 -0.563378 -0.561449 -0.467523 -0.0233764 0.090299 
-0.349579 -0.288709 -0.304528 -0.326056 -0.454724 -0.177717 -0.138016 -0.417676 -0.323249 
-0.185203 -0.196248 -0.532789 -0.490437 -0.435832 -0.00599044 0.0363897 0.0106789 -0.338443 
-0.321593 -0.232887 -0.590338 -0.578248 -0.686491 -0.769807 -0.789681 -0.828618 -0.721205 
-0.778178 -0.808715 -0.338046 -0.548176 0.15817 0.0358384 0.0355391 -0.829573 -0.763709 
-0.0644332 -0.12563 -0.139012 -0.368915 -0.457106 -0.397576 -0.432569 -0.394213 -0.48799 
-0.217888 -0.152515 -0.0243595 -0.0274657 -0.299526 -0.00710264 -0.0721698 -0.14401 0.0069186 
-0.00255984 -0.00211274 -0.00732724 -0.610291 -0.520352 -0.0526964 -0.50666 -0.592899 -0.544118 
-0.090881 -0.00191701 -0.0611583 -0.480191 -0.456367 -0.478166 -0.636931 -0.688327 -0.220717 
-0.131476 -0.176993 -0.394571 -0.247279 -0.445207 -0.459837 -0.35961 -0.332523 -0.463148 
-0.492918 0.00160113 0.0317788 0.00585998 -0.00995592 0.0218726 -0.0169564 0.0282974 -0.0414841 
-0.00550172 -0.0792741 -0.0705968 -0.122494 -0.172592 -0.201982 -0.0732603 -0.0926282 -0.0985984 
0.086981 0.0325817 0.0773995 0.0193844 0.0566809 -0.0205526 -0.0252039 -0.0582096 0.168678 
0.12999 0.170434 0.0276919 -0.0138659 -0.000810369 -0.255391 -0.275824 -0.223682 -0.232237 
-0.275834 -0.697126 -0.303016 -0.30778 -0.267172 -0.178557 -0.190395 -0.132428 0.131133 
-0.177842 -0.2152 -0.070213 -0.0832067 0.137707 0.0447037 -0.275683 0.189829 0.0766144 
-0.0113981 -0.23898 0.225179 0.206793 0.0289021 0.191152 0.221162 0.220619 -0.0286546 
0.0809386 0.155982 0.128353 0.158685 0.202219 0.154101 0.0967029 0.111027 0.202539 
0.242978 0.17005 0.196182 -0.22239 -0.188961 -0.215449 0.278976 0.264159 -0.11138 
-0.0896092 -0.175401 -0.225005 -0.219662 0.0849383 0.249368 0.225832 0.184573 0.0336042 
0.12792 0.0885841 -0.00811135 0.00195832 -0.0926485 -0.0430318 -0.193823 -0.153081 -0.10045 
-0.0316155 -0.320767 -0.292294 -0.267672 -0.232687 -0.35233 -0.36241 -0.2537 -0.197399 
-0.268995 -0.0145355 0.0252001 0.0305989 -0.10554 -0.411312 -0.350188 -0.265052 -0.320083 
-0.136191 -0.21285 -0.357118 -0.31847 -0.355517 -0.246092 -0.234661 -0.241362 -0.441404 
-0.26355 -0.256971 -0.295834 -0.272193 -0.603953 -0.665548 -0.332123 -0.329438 -0.14908 
-0.147792 -0.423037 -0.377215 -0.397506 -0.448521 -0.170078 -0.262557 -0.349051 -0.251572 
-0.466389 -0.480451 -0.460278 -0.443519 -0.471304 -0.481579 -0.471962 -0.464577 -0.482697 
-0.46795 -0.535861 -0.621678 -0.594623 -0.510652 -0.477035 -0.375888 -0.544824 -0.571212 
-0.647253 -0.721107 -0.695343 -0.385824 -0.435445 -0.401957 -0.475419 -0.388364 -0.203605 
-0.262643 -0.4663 -0.436552 -0.400133 -0.414418 -0.572623 -0.49031 -0.551714 -0.651321 
-0.511275 -0.7888 -0.774275 -0.755362 -0.841762 -0.891362 -0.904193 -0.864399 -0.813307 
-0.882223 -0.911329 -0.888376 -0.716848 -0.16456 -0.772983 -0.766855 -0.83267 -0.852878 
-0.364286 -0.828741 -0.78451 -0.865786 -0.711916 -0.856837 -0.861751 -0.821506 -0.841209 
-0.866057 -0.864034 -0.879878 -0.459642 -0.881517 0.104863 -0.212796 -0.542788 0.389359 
0.253571 0.0151702 0.0160617 0.0404529 -0.0965614 -0.0444891 -0.00340469 -0.309553 0.198047 
-0.0641863 0.0694785 0.0248034 0.0708535 0.0483769 0.0473624 -0.114488 -0.0407388 -0.134645 
0.0503715 -0.0151965 -0.0343903 -0.185586 -0.0938254 0.288084 0.245608 -0.0744086 -0.339489 
-0.0553435 -0.234572 -0.324855 -0.0462188 0.0359003 -0.0177754 -0.11729 -0.166867 -0.379288 
0.430745 0.388576 -0.287586 -0.364725 -0.168556 -0.116931 0.0206037 0.0531482 -0.212982 
-0.0895554 -0.0178454 0.021887 0.253323 0.204651 0.216356 0.363343 -0.0963207 -0.186593 
-0.242612 -0.250992 -0.233305 0.0145871 -0.00706044 -0.32128 -0.295103 -0.242941 0.25879 
-0.331886 -0.170318 0.0380008 -0.0907384 0.0362311 0.0428401 0.213182 -0.0643431 0.0392362 
-0.00534731 -0.139638 -0.174874 0.0123596 -0.05096 -0.0729333 0.0118917 -0.0884417 0.103851 
0.0823557 0.0302596 0.147763 -0.127567 -0.123185 -0.140832 -0.150058 0.123142 0.162611 
0.168311 0.121046 -0.0583301 0.00295363 0.00168425 -0.00380499 0.0795129 -0.0319043 -0.134881 
-0.287751 0.12531 0.0562128 0.0399356 0.0694671 0.103879 0.152322 0.117273 0.123804 
-0.318255 -0.30895 -0.220573 -0.0793726 0.2427 0.154616 -0.279539 
tcoords 2 853 float
20.2665 -1.93018 18.9053 -2.9059 17.4376 -3.88351 15.8596 -4.83522 14.1616 
-5.71628 12.3412 -6.475 10.4193 -7.06866 8.4296 -7.48126 6.40853 -7.72536 
4.37905 -7.83709 2.34636 -7.86127 0.298723 -7.83225 -1.79439 -7.75826 -3.96203 
-7.61587 -6.22605 -7.35624 -8.58762 -6.92319 -11.0248 -6.26939 -13.4848 -5.35364 
-15.8647 -4.14439 -18.0105 -2.65813 -19.7742 -0.958444 -21.0359 0.871382 -21.7069 
2.7352 -21.7309 4.52061 -21.0888 6.09526 -19.8431 7.29262 -18.1072 8.02802 
-15.9971 8.27625 -13.6397 8.03846 -11.1793 7.3357 -8.75606 6.24017 -6.45534 
4.94046 -4.26977 3.69443 -2.1576 2.6995 -0.0910577 2.0362 1.95036 1.69525 
3.98174 1.62989 6.0073 1.78437 8.01557 2.10488 9.97322 2.54561 11.8431 
3.0718 13.605 3.65326 15.2619 4.25468 16.8257 4.83138 18.3071 5.33742 
19.7022 5.73385 20.9941 5.99663 22.1595 6.11731 23.1749 6.09829 24.0224 
5.94703 24.6924 5.66883 25.1799 5.25629 25.4573 4.70751 25.4997 4.0751 
25.326 3.37419 24.9463 2.60476 24.3642 1.77364 23.5872 0.892982 22.6301 
-0.024156 21.5148 -0.967525 20.4081 -0.599737 19.5842 -1.30282 18.3919 -1.86414 
17.5947 -2.60144 16.204 -3.30092 15.1653 -4.00483 13.7816 -4.43649 12.7791 
-5.09958 11.1849 -5.52807 9.92828 -5.99529 8.42122 -6.07821 7.16223 -6.31667 
5.41734 -6.47373 4.14646 -6.69208 2.57013 -6.49246 1.29721 -6.69903 -0.511165 
-6.50852 -1.97311 -6.3918 -3.71631 -6.08737 -5.05685 -6.11093 -7.03471 -5.72922 
-8.55452 -5.3871 -10.3842 -4.6811 -11.8374 -4.29487 -13.8264 -3.38996 -15.0924 
-2.55984 -16.7585 -1.64393 -17.9779 -0.577138 -19.3302 0.589393 -19.8092 1.69403 
-20.551 2.69504 -20.7045 3.71846 -20.4616 4.75567 -19.9446 5.52251 -19.396 
6.25458 -18.487 6.73333 -17.0653 6.82905 -15.8655 6.84549 -14.2682 6.53441 
-12.6835 6.17488 -10.7425 5.39658 -9.23757 4.65065 -7.42995 3.58802 -6.0084 
2.95195 -3.89125 1.98504 -2.66774 1.42279 -0.415154 0.805356 0.80505 0.618146 
2.84003 0.441774 4.03407 0.403134 6.13003 0.553636 7.29186 0.758747 9.16787 
1.13694 10.2884 1.38623 12.1396 1.96303 13.1714 2.26678 14.7345 2.87244 
15.8124 3.2506 16.9681 3.92355 18.0041 4.21828 19.1867 4.75259 20.0421 
4.85611 20.9524 5.27553 21.7446 5.34737 22.622 5.54752 23.2265 5.48677 
23.8345 5.47802 24.2328 5.36682 24.6795 5.20619 24.8528 4.93077 25.0515 
4.67856 25.1105 4.3358 24.9815 3.88321 24.8586 3.43261 24.4308 2.9885 
24.1767 2.48253 23.495 1.88259 22.974 1.27357 22.0964 0.75294 21.5222 
0.0965026 24.6257 4.41435 24.4579 4.84357 24.3675 3.82457 23.7944 4.89043 
24.1518 4.50051 23.6047 3.09655 22.7724 4.73242 23.5085 4.15122 22.468 
2.20692 21.4132 4.33 19.2002 0.049401 20.9849 1.18771 17.8546 2.85993 
19.771 3.70017 -19.1496 4.53384 10.1782 -0.305923 12.9945 0.689868 22.4685 
3.5829 15.9142 1.8411 -19.5018 3.35917 -18.3394 5.49215 12.5153 -3.32977 
14.8956 -2.42255 17.1076 -1.13114 1.73258 -5.02371 -4.29028 -4.34443 5.04831 
0.948772 6.94272 -0.985416 -1.3622 1.58248 11.0847 2.12374 -18.0675 1.87144 
-16.2588 5.12313 9.95 -4.16508 4.4968 -4.95384 -0.204549 -0.997945 -3.98435 
0.106309 7.64467 -4.70419 11.4412 0.924585 3.55336 -1.15249 -0.913475 -4.76093 
-10.4382 -2.55564 21.1437 2.8733 5.13972 -0.448122 -1.92227 -0.0211942 -17.9585 
3.62824 -16.0875 0.496655 -13.9282 4.33373 -7.26736 -3.64382 -7.65739 1.62711 
-13.4268 -1.20808 -10.943 3.0859 11.9907 -0.897462 19.6738 2.0942 -15.9808 
2.778 8.50578 -0.282809 9.18301 -2.07548 -5.66182 1.05584 1.75339 -0.967835 
5.21783 -2.63947 -2.069 -2.28344 13.7704 -0.970616 -6.12566 -1.30023 0.839452 
-2.95706 15.4554 -0.677892 16.4881 0.427529 -9.06214 -3.69338 -8.31987 -1.80149 
-5.8565 -4.56751 -5.34329 -2.96238 -15.1665 -0.968024 -14.1107 0.618218 -11.8401 
0.710646 -12.2535 -2.52801 -11.4162 -1.05221 -9.5765 0.246061 -12.1668 4.43791 
-12.8845 2.68611 -9.07011 2.81293 3.08438 -3.15845 6.14531 -4.27343 7.50549 
-2.93243 -7.51742 -0.134823 10.9632 -2.33803 -2.58688 -4.1093 -0.858139 -3.14101 
14.6466 0.753811 17.9384 1.16214 -14.4569 2.17991 -3.81224 -1.90866 -9.64124 
-5.89551 -9.58595 -5.11523 -10.5941 -5.39689 4.525 0.709761 4.48772 -0.0111112 
5.09044 0.359928 -11.0478 -4.5449 -11.5496 -5.27743 -12.5914 -4.87356 -12.2575 
-5.84668 -8.60426 -6.17606 -9.79941 -6.62652 5.60016 0.788691 6.09604 1.12227 
5.41356 1.32835 -6.04857 -5.96446 -6.69489 -6.56188 -5.57627 -6.75545 -5.08157 
-7.50426 -4.60032 -6.88664 -10.4798 -3.76374 -11.1859 -3.51192 -7.7051 -6.37069 
-7.77894 -5.54248 -7.19606 -4.78107 -7.89482 -4.61449 -7.39561 -7.16449 -3.18799 
1.63876 -3.93049 1.07821 -3.2065 0.822466 -9.71255 -4.1992 -9.68904 -3.16759 