# vtk DataFile Version 3.0
vtk output
ASCII
DATASET POLYDATA
POINTS 853 float
14.7334 -1.3591 30.3319 14.7079 -2.38113 30.1492 14.7071 -3.37931 30.0034 
14.7184 -4.36985 29.8107 14.7143 -5.40745 29.5378 14.7128 -6.43341 29.1001 
14.6722 -7.37989 28.3926 14.5876 -8.28198 27.3847 14.5144 -9.10784 26.2663 
14.4597 -9.85873 25.265 14.4254 -10.6423 24.3483 14.4181 -11.4542 23.5059 
14.432 -12.298 22.6306 14.4256 -13.1635 21.6182 14.3989 -13.9787 20.5189 
14.4266 -14.7086 19.2755 14.3919 -15.2362 18.0222 14.2979 -15.5731 16.8166 
14.1739 -15.7652 15.6115 13.9135 -15.9345 14.4293 13.4954 -16.0935 13.3268 
12.9863 -16.043 12.3258 12.4752 -15.5553 11.5955 11.9663 -14.4901 11.2518 
11.3566 -12.8578 11.2344 10.779 -11.1539 11.4465 10.4709 -9.82246 11.8517 
10.5256 -8.88424 12.5039 10.8148 -8.20867 13.3839 10.9474 -7.5862 14.3485 
10.7857 -6.94039 15.2656 10.6523 -6.44498 16.1199 10.7248 -6.14335 16.9295 
10.8938 -5.87575 17.7255 11.0392 -5.51026 18.5086 11.1229 -4.96416 19.2312 
11.2079 -4.3134 19.9291 11.3437 -3.58102 20.6853 11.5487 -2.91098 21.5471 
11.7588 -2.31601 22.5052 11.975 -1.66551 23.4537 12.2542 -0.999147 24.2753 
12.5722 -0.302287 24.9384 12.8614 0.399188 25.4827 13.1135 1.09481 26.0217 
13.3295 1.92588 26.5262 13.4946 2.87458 27.0001 13.6439 3.89906 27.5092 
13.8401 5.10093 28.066 14.1291 6.64463 28.6773 14.4972 8.37438 29.3384 
14.9289 9.62257 30.071 15.3367 9.87791 30.7537 15.5718 9.03256 31.2006 
15.6113 7.11429 31.3481 15.4793 4.83442 31.3065 15.279 3.07422 31.153 
15.0834 1.76819 30.9145 14.9028 0.664385 30.7156 14.7802 -0.347097 30.5478 
14.7094 -0.983454 29.8962 14.6755 -1.64012 29.8715 14.6597 -2.486 29.4842 
14.6698 -3.04301 29.5219 14.6499 -3.8887 29.2295 14.6448 -4.53997 29.1705 
14.5801 -5.2384 28.709 14.6006 -5.82545 28.6221 14.5352 -6.56731 28.0092 
14.5245 -7.2067 27.5622 14.395 -7.70581 26.7492 14.3533 -8.21543 26.1345 
14.2819 -8.83625 25.2675 14.286 -9.38395 24.7136 14.1756 -9.80431 23.9938 
14.2051 -10.3824 23.5738 14.1366 -10.9761 22.8271 14.0691 -11.5176 22.173 
14.0174 -12.0588 21.3778 14.0011 -12.6309 20.8575 13.9369 -13.259 19.904 
13.8194 -13.6663 19.156 13.7127 -14.0286 18.1913 13.6319 -14.3793 17.5013 
13.493 -14.6581 16.5345 13.3218 -14.6987 15.8874 13.2448 -14.9426 15.0306 
13.0449 -14.9966 14.2555 12.8248 -15.1832 13.3769 12.5313 -14.9132 12.8987 
12.2913 -14.8623 12.3057 11.9769 -14.3441 11.999 11.5887 -13.4358 11.8959 
11.2164 -12.4821 11.9383 10.8698 -11.5963 11.9574 10.6088 -10.7583 12.1713 
10.4498 -10.0644 12.7237 10.4063 -9.59042 13.1652 10.4485 -9.19427 13.8448 
10.5847 -8.8048 14.4886 10.7116 -8.41004 15.2692 10.8556 -8.18797 15.894 
10.9783 -7.88535 16.611 11.1147 -7.6255 17.1005 11.287 -7.22693 17.859 
11.4567 -7.14498 18.3892 11.602 -6.65252 19.2158 11.621 -6.32707 19.6685 
11.7077 -5.74039 20.3422 11.7415 -5.41982 20.7984 11.8916 -4.72523 21.5372 
11.9603 -4.2623 21.9681 12.1455 -3.69162 22.6971 12.2262 -3.30869 23.2197 
12.3701 -2.59948 24.0166 12.5294 -2.15966 24.4766 12.7202 -1.46992 25.0954 
12.8796 -0.941813 25.489 12.9522 -0.284949 25.8148 13.1766 0.230894 26.1801 
13.3433 0.991655 26.57 13.5442 1.43744 26.9602 13.6291 2.23287 27.2598 
13.8138 2.92834 27.623 13.9461 3.99218 28.0136 14.1375 4.85604 28.4229 
14.3016 6.04506 28.8365 14.4776 6.9883 29.1975 14.7227 8.22163 29.6551 
14.9163 8.49927 30.027 15.1219 8.82889 30.384 15.2744 8.46013 30.6921 
15.3193 7.15628 30.8639 15.3311 5.86 31.0121 15.2082 4.33731 30.8316 
15.1721 3.40149 30.8461 15.0175 2.19159 30.5856 14.9159 1.41327 30.5496 
14.8092 0.528861 30.1874 14.766 -0.0606701 30.1912 15.0013 7.08722 30.223 
14.7707 7.17264 29.7614 15.0169 5.28661 30.439 14.5069 5.39396 29.2317 
14.7596 5.76003 29.8255 14.8816 3.11764 30.2217 14.2477 3.44054 28.612 
14.6296 3.96939 29.5594 14.7171 1.3757 29.8522 13.9913 1.78451 27.9686 
14.5049 -1.64979 28.9806 14.5841 -0.161013 29.4218 13.4837 -0.923856 26.6605 
13.7339 0.372353 27.3205 11.3628 -12.695 12.6276 12.9616 -4.65478 24.0574 
13.0982 -3.49341 25.0357 14.4697 2.16938 29.1038 13.3807 -2.04652 26.0845 
11.8627 -13.7528 12.7621 10.8949 -11.5244 12.7174 14.2671 -5.4792 27.2672 
14.4124 -4.33899 28.0608 14.4348 -3.08694 28.4415 13.7077 -9.30145 23.0762 
13.3688 -11.1333 20.7091 11.5716 -4.65998 20.806 12.7155 -5.68305 22.9251 
11.3154 -6.46353 18.5262 12.0773 -2.56913 23.3467 12.1301 -13.7906 13.871 
10.7891 -10.8089 13.7769 14.1648 -6.5834 26.3949 13.849 -8.41743 24.0957 
12.308 -7.73218 20.4046 11.999 -8.49211 18.858 14.0807 -7.36853 25.615 
12.6714 -3.55367 24.0867 12.4022 -6.64394 21.6527 13.564 -10.0998 22.053 
12.8515 -12.7196 17.9025 14.2988 0.635481 28.6022 12.2304 -5.75067 21.7919 
11.9813 -7.77298 19.3912 11.4916 -12.5908 13.4812 12.317 -13.5339 15.0763 
10.9012 -10.3866 14.9621 13.1564 -11.9657 19.39 11.6569 -9.18711 17.429 
12.5578 -13.292 16.511 11.2719 -9.8477 16.2328 13.5164 -4.66009 25.3694 
14.1413 -0.705999 28.1437 11.5067 -12.1703 14.662 12.6409 -4.91621 23.1993 
13.432 -5.89664 24.5993 11.7124 -8.6123 18.08 12.2996 -7.0525 20.9735 
13.147 -7.03325 23.2066 12.7524 -9.13454 20.5421 13.8686 -4.25018 26.4238 
12.4451 -10.1183 19.0068 12.9925 -8.4734 21.7946 14.0714 -3.63824 27.2165 
13.9262 -2.85433 27.1513 13.2159 -12.8021 18.6611 12.5767 -11.3182 18.5133 
13.4634 -11.9497 20.1896 12.8837 -10.7097 19.913 12.6888 -13.9069 15.7151 
12.0461 -12.5832 15.9398 11.8714 -11.5113 16.7475 12.9294 -13.5192 17.1606 
12.3546 -12.2872 17.2822 12.0313 -10.7486 17.5163 10.866 -9.59552 15.4063 
11.3575 -10.9063 15.8852 11.3319 -9.17083 16.7077 13.1393 -7.90564 22.6211 
13.8471 -7.57307 24.6412 13.5851 -6.64116 24.456 12.1473 -10.0711 18.1672 
13.7741 -5.61821 25.6775 13.3242 -10.3401 21.2039 13.0214 -9.16563 21.3228 
13.4489 -3.09047 25.8927 14.0229 -1.97889 27.6133 11.5634 -11.8586 15.469 
12.6059 -9.5343 19.9257 14.108 -14.4772 18.6727 13.8023 -13.9502 18.6195 
14.0052 -14.5562 18.1633 11.6345 -5.01903 20.769 11.9656 -5.61169 21.2473 
11.8506 -5.15556 21.2266 13.6918 -14.2164 17.8775 14.0253 -14.8512 17.7083 
13.9643 -15.0068 17.1984 14.3344 -15.4215 17.4182 14.1402 -14.2272 19.2134 
14.4289 -15.0055 18.641 11.7134 -4.65409 21.1449 11.6266 -4.2125 21.1448 
11.448 -4.19544 20.6982 13.9805 -12.9732 20.3968 14.1905 -13.6654 20.1907 
14.2019 -13.2941 20.7511 14.3971 -13.5748 21.0907 14.232 -12.9571 21.2034 
13.3362 -13.4936 18.0498 13.252 -13.6349 17.7199 14.1757 -13.9803 19.6728 
13.8678 -13.4457 19.538 13.5783 -12.6863 19.6696 13.504 -12.8638 19.3395 
14.4126 -14.3616 19.908 11.3928 -7.19036 18.1671 11.6483 -7.86973 18.351 
11.7209 -7.75878 18.6279 13.4576 -13.4245 18.446 13.055 -12.7629 18.3051 
13.4799 -15.5165 14.3017 13.3215 -15.5761 13.831 13.7245 -16.0238 13.8666 
11.3743 -6.78006 18.4393 11.1247 -6.20181 18.1812 11.1921 -6.59641 18.0727 
11.6991 -13.1957 13.168 11.4235 -12.6577 13.0029 11.5812 -13.1474 12.7109 
13.1372 -15.63 13.3413 12.912 -15.0632 13.7886 13.1494 -14.961 14.6547 
13.6009 -15.4612 14.747 12.9466 -15.6212 12.9127 13.2418 -16.111 12.8155 
13.8516 -15.2438 16.1307 14.2508 -15.6862 16.217 13.9077 -15.147 16.6364 
13.5782 -14.5622 17.0089 12.8863 -13.1772 17.5136 13.241 -13.9081 17.3171 
13.7029 -15.3809 15.2442 13.6897 -15.1836 15.7448 13.3425 -14.8823 15.4836 
13.4167 -14.7018 16.1688 10.872 -9.92492 15.2109 10.6916 -9.22445 14.9976 
10.6643 -9.49817 14.7203 12.9876 -14.307 15.7967 12.9336 -14.3985 15.3817 
14.0581 -15.8446 15.0103 12.2356 -5.16561 22.109 12.2988 -4.96064 22.3901 
11.9235 -4.53398 21.726 12.3784 -13.322 15.8285 12.6177 -13.6311 16.0735 
12.2689 -12.8878 16.2425 13.4109 -11.5477 20.4732 13.7227 -12.2729 20.5043 
13.7207 -11.9284 20.8368 13.5506 -7.31694 23.9851 13.681 -7.07453 24.4497 
13.3481 -6.77036 23.7893 14.423 -11.8705 23.0822 14.3039 -11.2689 23.153 
14.295 -11.6318 22.7718 14.2312 -9.57677 24.3547 14.1357 -8.96849 24.5249 
14.0319 -9.1583 24.0505 14.3121 -10.8796 23.5567 14.1579 -10.5979 23.2321 
14.2642 -12.3129 21.9991 14.44 -12.7328 22.1427 14.2777 -11.9533 22.4185 
14.3212 -10.5452 23.9092 14.4182 -11.0491 23.9174 12.3704 -6.85965 21.3508 
12.0448 -6.2256 20.9658 11.986 -6.39519 20.6232 14.3789 -9.62055 24.9728 
14.3559 -9.93805 24.5802 14.4414 -10.2376 24.8058 14.587 -2.71135 29.0697 
14.5978 -2.17442 29.2384 14.4636 -2.37491 28.6669 14.307 -10.1745 24.1698 
14.3961 -9.33625 25.3433 14.276 -9.10652 24.9605 14.4835 -9.48587 25.7494 
14.422 -9.01387 25.777 13.9791 -9.51826 23.6375 14.0156 -9.95315 23.3719 
14.182 -10.0967 23.7754 14.6047 -3.10774 29.115 14.5677 -3.56916 28.8481 
14.6584 -3.42769 29.3575 14.1671 -4.3902 27.2204 14.2334 -3.94086 27.5704 
13.9847 -3.93568 26.8529 14.0845 -8.56535 24.7299 13.3417 -8.88228 22.4371 
13.2931 -9.27445 22.0058 13.6084 -9.70183 22.5069 14.1125 -11.2819 22.4901 
13.7228 -11.6249 21.0812 14.0363 -12.37 21.1595 13.8218 -10.8137 22.1181 
13.8788 -10.5599 22.4857 13.9152 -10.1555 22.9289 14.2216 -12.5476 21.5357 
14.0424 -11.8318 21.7535 11.7314 -5.56488 20.6111 12.0372 -5.99614 21.175 
12.6658 -6.38859 22.4547 12.3495 -6.25587 21.7923 12.768 -6.90346 22.3947 
11.3917 -4.47272 20.4218 11.4874 -4.94815 20.3868 11.4417 -5.06931 20.0905 
11.6513 -6.01116 19.9932 11.4047 -5.34113 19.7724 11.3556 -5.66565 19.4217 
14.1263 -7.93137 25.395 14.2012 -7.77376 25.8434 13.9576 -7.42443 25.1204 
11.9439 -6.98163 20.012 11.6167 -6.52736 19.4139 11.9036 -7.1265 19.7102 
13.7576 -8.8132 23.5596 12.7255 -7.5105 21.7972 12.6571 -7.74712 21.4119 
13.0595 -8.17902 22.1971 14.4582 -8.65563 26.2753 14.3071 -8.50204 25.6741 
13.4751 -10.2731 21.6675 13.7359 -10.9762 21.7522 11.6375 -3.88995 21.3435 
12.4002 -15.2149 11.9815 12.1087 -14.578 12.1686 12.2001 -14.8929 11.7801 
12.1254 -2.90372 23.2443 12.4365 -3.46483 23.6178 12.3152 -3.00024 23.6506 
11.7958 -13.9324 11.9582 11.7472 -13.8946 11.554 11.9871 -14.4526 11.6389 
12.2292 -15.0991 11.3765 12.6182 -15.4322 12.2687 12.7286 -15.8647 11.9093 
12.207 -2.54987 23.6699 12.1662 -2.15868 23.7547 12.0007 -2.17396 23.3386 
11.8891 -14.0362 12.3243 11.6889 -13.549 12.325 12.7431 -15.426 12.6484 
[...]
POINT_DATA 853
VECTORS velocity double
1.00583 -2.80699 -0.24926 1.17429 -3.01414 -0.207867 1.26134 -3.04139 -0.0281346 
1.28752 -2.92135 0.235471 1.25948 -2.68443 0.541085 1.17592 -2.37866 0.756978 
1.02972 -2.00858 0.75524 0.8031 -1.53496 0.603818 0.522241 -1.03625 0.544645 
0.237121 -0.625128 0.681711 -0.0383081 -0.325609 0.940231 -0.256198 -0.171705 1.1955 
-0.384582 -0.146001 1.3381 -0.38611 -0.229934 1.25229 -0.236666 -0.390243 0.904602 
0.0660791 -0.505597 0.43851 0.491395 -0.442177 0.164443 1.01491 -0.238318 0.146052 
1.60283 -0.0121342 0.266288 2.18753 0.0868027 0.368257 2.63678 -0.00507 0.369959 
2.78683 -0.192404 0.30322 2.49195 -0.242586 0.28427 1.58279 0.0710511 0.423907 
0.00206018 0.861023 0.665867 -1.46188 1.6326 0.600406 -2.44349 1.90708 0.239266 
-3.02645 1.83619 -0.0172911 -3.22848 1.65159 -0.0995909 -3.21237 1.60719 -0.229633 
-3.16668 1.85837 -0.536849 -2.96618 2.21855 -0.855042 -2.5564 2.45636 -1.04519 
-2.04944 2.58003 -1.16778 -1.54914 2.65954 -1.31881 -1.11218 2.76223 -1.56988 
-0.676402 2.79826 -1.84342 -0.208157 2.66241 -2.07644 0.259377 2.17741 -2.17775 
0.642617 1.39815 -2.19399 0.864475 0.582357 -2.16698 0.948747 -0.151194 -2.0772 
0.943227 -0.719915 -1.93011 0.902853 -1.12777 -1.75363 0.874008 -1.48092 -1.57157 
0.824205 -1.72215 -1.38808 0.758551 -1.86724 -1.21526 0.666573 -1.89618 -1.01633 
0.502396 -1.61486 -0.754039 0.237163 -0.581933 -0.454034 -0.108272 1.58198 -0.111547 
-0.395156 3.77084 0.508354 -0.50692 4.45575 1.2772 -0.473378 3.27885 1.57391 
-0.354399 0.435904 1.20355 -0.271334 -1.55111 0.953661 -0.0599472 -2.00065 0.671013 
0.230561 -2.11165 0.321286 0.519684 -2.27226 0.030657 0.776132 -2.51313 -0.157509 
1.04746 -2.94883 -0.39975 1.15833 -3.08561 -0.401392 1.32814 -3.31193 -0.473884 
1.34693 -3.26778 -0.343712 1.39209 -3.19546 -0.249582 1.36138 -3.00844 -0.0384554 
1.33359 -2.77933 -0.0141936 1.25528 -2.53611 0.20406 1.13853 -2.15473 0.189742 
1.00165 -1.81971 0.247313 0.846508 -1.40638 0.122861 0.671996 -1.05041 0.174113 
0.414839 -0.581995 0.324194 0.207296 -0.306609 0.535815 -0.00844121 0.028195 0.744501 
-0.17308 0.133395 0.966476 -0.367008 0.327885 1.19135 -0.481967 0.410312 1.31427 
-0.535274 0.443229 1.31438 -0.490629 0.294394 1.21851 -0.34696 0.141219 0.938239 
-0.171843 0.0404463 0.705704 0.104137 -0.0119905 0.508984 0.395507 -0.0494838 0.417516 
0.811467 0.0146727 0.452821 1.05557 0.0928335 0.559276 1.49486 0.136068 0.621927 
1.78137 0.150431 0.683181 2.12641 0.0780513 0.631784 1.98722 0.0799793 0.661331 
1.96747 0.0320627 0.583223 1.48007 0.180196 0.642499 0.576224 0.564456 0.801658 
-0.332766 1.0095 0.92088 -1.09006 1.39398 0.882162 -1.72103 1.63107 0.758251 
-2.14213 1.62819 0.685711 -2.37751 1.55701 0.604136 -2.4412 1.39958 0.588546 
-2.45012 1.30313 0.505419 -2.33071 1.27845 0.371164 -2.1278 1.30886 0.280161 
-1.88851 1.41817 0.121543 -1.72035 1.52674 -0.0104139 -1.42535 1.68404 -0.200433 
-1.1449 1.67881 -0.1928 -0.789738 1.72431 -0.402852 -0.58625 1.71175 -0.562743 
-0.241195 1.61436 -0.857949 0.00391263 1.4589 -1.02498 0.424863 1.11412 -1.39121 
0.653244 0.878429 -1.62533 0.989727 0.316614 -1.89742 1.17237 -0.0997462 -2.04653 
1.33791 -0.706749 -2.19378 1.3787 -1.07684 -2.21379 1.34952 -1.48504 -2.12602 
1.28648 -1.69674 -2.00364 1.16344 -1.72916 -1.83197 1.10283 -1.90799 -1.67522 
0.994164 -1.97694 -1.47357 0.9526 -2.12958 -1.31149 0.846441 -2.11945 -1.15291 
0.746636 -2.15166 -0.960564 0.591535 -2.0334 -0.740238 0.426418 -1.79133 -0.494039 
0.225769 -1.07875 -0.280448 0.0502415 -0.161494 -0.100586 -0.184868 1.52864 0.170572 
-0.2913 2.0833 0.473962 -0.385776 2.73631 0.811493 -0.388073 2.25211 1.03502 
-0.30783 0.379069 0.972148 -0.27181 -0.985785 0.93524 -0.151649 -1.88889 0.775967 
-0.0454986 -2.07904 0.65191 0.220721 -2.22164 0.325688 0.397243 -2.27881 0.135435 
0.673727 -2.51058 -0.14647 0.801528 -2.62261 -0.232614 -0.201946 0.155152 0.589167 
-0.109269 0.162243 0.280057 -0.133531 -1.53087 0.673197 0.168243 -1.55235 0.00244747 
-0.0169485 -1.26604 0.351971 0.154176 -2.27999 0.371326 0.532388 -2.2942 -0.422742 
0.218681 -2.20471 0.154164 0.579527 -2.51127 -0.114987 0.881088 -2.48729 -0.897331 
1.35973 -3.4278 -0.795023 1.00772 -2.94442 -0.526058 1.45506 -2.79746 -1.76921 
1.1801 -2.66707 -1.33499 -0.11024 0.832391 1.12198 1.43852 -1.19168 -1.82388 
1.70716 -2.09972 -2.2084 0.608553 -2.52792 -0.304383 1.65974 -2.78074 -2.09127 
0.89742 0.412058 0.957955 -1.07325 1.25783 1.13964 1.39048 -2.50834 -0.776937 
1.52291 -3.16986 -0.80073 1.5551 -3.54237 -0.931757 -0.106389 0.561401 0.703065 
-0.633266 1.07604 1.2886 -0.0157405 1.80254 -1.4675 0.902376 -0.102421 -1.11095 
-1.24422 1.97609 -0.625577 1.07884 0.157743 -2.14803 0.865113 0.367095 1.09683 
-1.37877 1.15437 1.28768 1.11755 -1.6902 -0.589286 0.316428 -0.0231399 0.175662 
-0.337487 1.35697 0.292308 -0.762826 1.42471 0.583958 0.842434 -1.04891 -0.354173 
1.50187 -1.16664 -2.12932 0.241071 0.847758 -0.361261 -0.433291 0.940369 1.09583 
-0.258388 0.579262 0.929951 1.00963 -2.86067 -0.767712 0.463378 0.717995 -0.869136 
-0.633302 1.47299 0.269628 -0.157922 0.738434 1.33189 0.513118 0.36637 1.12399 
-1.29934 0.961005 1.31715 -0.557146 0.899239 1.13485 -1.04037 1.17979 0.828955 
0.156638 0.383945 0.949771 -1.17747 0.967597 1.11568 1.63026 -2.16723 -1.86553 
1.35684 -3.29185 -1.15186 -0.383123 0.681286 1.49277 1.14716 -0.416065 -1.54179 
1.23001 -1.17626 -1.27841 -0.965947 1.33859 0.589228 -0.0651952 1.16557 -0.0790723 
0.576632 0.10355 -0.424558 -0.514564 1.42735 0.895513 1.70089 -2.8717 -1.73416 
-0.699257 1.36765 1.10323 -0.175114 1.08614 0.555045 1.70841 -3.34213 -1.53102 
1.73757 -3.46612 -1.69967 -0.329866 0.537707 0.903325 -0.604005 1.08864 1.1625 
-0.585996 0.82104 1.22109 -0.66228 1.31964 1.21805 0.643056 0.265993 0.887979 
-0.129485 0.54088 1.27512 -0.542161 0.798231 1.30417 0.139804 0.298248 0.754371 
-0.318626 0.689241 1.10684 -0.705158 1.03087 1.20353 -1.57304 1.02271 1.02209 
-0.840185 0.824944 1.40438 -1.27802 1.09574 0.827667 0.160442 0.647702 0.157763 
0.66359 -0.510339 -0.303968 0.954679 -0.771284 -0.838215 -0.761197 1.23315 1.08371 
1.40081 -1.89319 -1.34661 -0.573736 1.18593 1.20209 -0.406742 1.27687 0.87689 
1.77504 -2.80167 -2.1532 1.62584 -3.54854 -1.49734 -0.485151 0.681822 1.47377 
-0.623033 1.46705 1.00756 0.12974 -0.289129 0.407439 -0.00638504 -0.0324238 0.557347 
0.273028 -0.23218 0.347476 -0.0207845 1.64698 -1.2634 0.231523 1.10254 -0.906969 
0.245377 1.23249 -1.16148 0.238663 -0.0460592 0.449953 0.490271 -0.252737 0.2632 
0.709351 -0.195935 0.252355 0.740927 -0.350762 0.129992 -0.0371328 -0.266125 0.555005 
0.266847 -0.499276 0.264587 0.197708 1.501 -1.43837 0.173704 1.73885 -1.67137 
-0.126113 2.19208 -1.74567 -0.429706 0.209067 1.08983 -0.280183 -0.147325 0.899793 
-0.3789 -0.0594964 1.09529 -0.331537 -0.304976 1.11106 -0.433109 0.0100275 1.22287 
-0.0411329 0.246878 0.683276 0.0708035 0.216193 0.651768 -0.160987 -0.221634 0.709416 
-0.272748 0.100989 0.827081 -0.450046 0.509186 1.03374 -0.387083 0.457364 0.94924 
-0.10317 -0.464296 0.665236 -1.25637 1.67934 -0.189219 -1.00221 1.47221 0.234486 
-0.907825 1.49608 0.198421 -0.130501 0.246404 0.709821 -0.29716 0.563041 0.905137 
2.07812 0.104768 0.507211 2.26657 0.0791778 0.514524 2.43923 0.0628148 0.381408 
-1.21162 1.82834 -0.423176 -1.57063 2.22256 -0.862968 -1.50953 1.98753 -0.598769 
0.362197 0.580476 1.16678 -0.124831 0.790815 1.22345 0.312068 0.641283 1.07671 
2.4269 0.0234772 0.497171 1.95161 0.126297 0.677785 1.63402 0.151059 0.66188 
1.88097 0.101362 0.480832 2.50258 -0.0381381 0.471961 2.75778 -0.0985754 0.341154 
1.20942 -0.039309 0.332646 1.30413 -0.11951 0.197336 0.968165 -0.116311 0.28136 
0.613523 -0.0323411 0.410866 -0.0539195 0.408781 0.824464 0.262896 0.147887 0.596084 
1.64015 0.0707583 0.437744 1.34577 0.0315224 0.418104 1.29839 0.106727 0.56893 
0.958899 0.0564403 0.503914 -1.46748 0.993676 1.1585 -1.95452 1.13418 0.810387 
-1.8997 1.13627 0.922279 0.864137 0.178613 0.72201 1.03991 0.19293 0.764811 
1.90344 0.0608882 0.329026 0.68189 0.512778 -1.21586 0.827489 0.297108 -1.35832 
0.527642 1.01082 -1.49055 0.273344 0.385732 1.07535 0.4072 0.310263 0.918511 
-0.00195492 0.48135 1.13388 -0.622336 0.95922 1.27631 -0.545908 0.586729 1.22031 
-0.579615 0.685402 1.28736 0.642221 -0.243445 -0.395884 0.802517 -0.589077 -0.581689 
0.793563 -0.33249 -0.683454 -0.333385 -0.144396 1.28775 -0.317583 0.0646158 1.20375 
-0.388022 0.0956571 1.28658 0.102915 -0.135167 0.629236 0.25672 -0.202779 0.385536 
0.123956 0.0492513 0.505656 -0.220255 0.00206718 1.08489 -0.263912 0.250305 1.06538 
-0.459426 0.0945319 1.33866 -0.403428 -0.176262 1.32956 -0.432923 0.105464 1.33155 
-0.120407 -0.0792057 0.965046 -0.158033 -0.229625 1.07686 0.0946563 1.00584 -0.210264 
0.0466497 1.17658 -0.547399 -0.116408 1.31513 -0.447147 0.216184 -0.454751 0.609181 
0.0912382 -0.296466 0.728474 0.0982844 -0.461799 0.800439 1.42784 -3.44953 -0.645599 
1.35908 -3.39872 -0.634893 1.49208 -3.56356 -0.911345 -0.0246727 -0.127487 0.836181 
0.331478 -0.616859 0.51641 0.306312 -0.423338 0.425697 0.379158 -0.817413 0.592246 
0.461027 -0.817347 0.43572 -0.0328045 0.251776 0.69565 -0.160618 0.332197 0.876657 
-0.0967011 0.0935161 0.86218 1.42869 -3.39473 -0.540261 1.47002 -3.36687 -0.570472 
1.38182 -3.26624 -0.325552 1.61404 -3.05458 -1.29107 1.63616 -3.30123 -1.24231 
1.71371 -3.14536 -1.64033 0.389616 -0.336061 0.201132 -0.143547 0.866858 0.639843 
-0.311389 1.05204 0.850118 -0.295451 0.806342 0.928119 -0.434338 0.369574 1.26956 
-0.590825 0.761086 1.31282 -0.515655 0.349055 1.2796 -0.481361 0.715049 1.23559 
-0.403889 0.630414 1.15351 -0.278574 0.519966 0.999798 -0.472731 0.130991 1.29896 
-0.520372 0.429202 1.33372 -0.0972713 1.52446 -0.947463 0.161639 1.09137 -0.686736 
0.568554 0.362452 -0.630076 0.372451 0.735179 -0.592993 0.405417 0.517019 -0.33474 
-0.292979 2.2573 -1.6376 -0.267856 1.9774 -1.35218 -0.449306 2.11255 -1.31881 
-0.427612 1.69361 -0.72487 -0.633536 2.14862 -1.19459 -0.828861 2.14137 -1.03949 
0.656105 -0.778301 -0.083628 0.749414 -1.02179 -0.0976132 0.774456 -0.799648 -0.37933 
-0.403263 1.45279 -0.129556 -0.700915 1.7185 -0.46117 -0.524073 1.49925 -0.0635376 
0.105896 0.304334 0.428416 0.0719902 0.925103 0.0884107 -0.0846445 1.10584 0.25412 
-0.013786 0.88904 0.363765 0.599882 -1.05633 0.38698 0.549185 -0.803952 0.218663 
-0.510527 1.05236 1.16813 -0.539064 0.807662 1.28045 0.269754 1.73185 -1.80948 
2.26495 -0.102906 0.433255 1.70503 0.108055 0.626802 1.98653 -0.0324361 0.464448 
1.11301 0.0841585 -2.11041 1.34364 -0.624291 -2.07375 1.29105 -0.462393 -2.13855 
1.07286 0.344091 0.723504 1.0235 0.349738 0.620229 1.57465 0.114389 0.528148 
2.12995 -0.143255 0.330753 2.43496 -0.110277 0.432215 2.70279 -0.251004 0.277951 
1.20209 -0.244227 -2.16816 1.13082 -0.125681 -2.17652 0.971004 0.413782 -2.16866 
1.17887 0.3101 0.793462 0.696842 0.50306 0.900231 2.40969 -0.0501573 0.490519 
2.02291 0.0436578 0.610978 0.391436 0.655647 0.716944 0.846249 0.416109 0.553828 
-0.250267 0.936833 1.02755 0.0827937 0.80338 0.865135 0.214838 0.716525 0.973995 
1.50264 0.19986 0.754153 2.06947 0.0748359 0.650495 -0.194427 0.958491 0.80682 
-0.7111 1.20513 0.919296 -0.70063 1.23021 0.805152 -0.794862 1.30026 0.689812 
-1.23756 1.49763 0.760011 -2.05787 1.77327 0.537608 -2.00577 1.8286 0.428983 
-1.67684 1.67588 0.659458 -1.41019 1.52244 0.847183 -0.522213 1.01014 1.17553 
-0.706227 1.15652 1.04637 0.893733 -2.77154 -0.346852 1.05392 -2.99075 -0.482985 
0.923252 -2.77991 -0.325943 0.878686 0.395997 1.05174 1.47996 0.219446 0.821548 
1.47694 0.224556 0.865876 -1.10955 1.35482 0.988661 -1.4859 1.48716 0.939238 
-2.78454 1.9008 0.0815004 -2.37435 1.79362 0.420522 -2.61046 1.76403 0.32537 
-2.29315 1.59106 0.637732 -2.67002 1.67278 0.351223 -2.41086 1.49145 0.605581 
-2.84145 1.62553 0.25012 0.812125 -2.67054 -0.543519 0.768677 -2.5594 -0.602737 
0.955363 -2.69659 -0.837312 -3.16911 1.74236 -0.0674655 -2.90742 1.54824 0.210764 
-1.93009 1.64665 0.73251 -1.77487 1.41137 1.0017 -1.63244 1.459 0.988577 
-1.22448 1.21217 1.24819 1.21196 -3.22524 -0.704811 1.18401 -3.17332 -0.561655 
-0.645756 0.988804 1.30439 1.47165 -2.18823 -2.07075 1.57955 -2.82984 -1.95761 
1.40594 -2.2711 -1.94861 -1.74382 2.05439 -0.66104 -1.16409 1.45644 0.214017 
-0.854614 1.38725 0.591952 -2.32386 2.54797 -1.12612 -1.95407 2.01372 -0.614104 
-2.14003 1.90648 -0.504799 -1.60264 1.62749 -0.135408 -1.40654 2.26126 -0.936959 
-1.01843 1.86382 -0.53158 -1.08086 2.05677 -0.787788 -1.83461 1.47707 0.0441798 
-1.41121 1.24854 0.495326 -1.3178 1.29211 0.45404 -0.995918 2.12026 -0.913114 
-1.32216 2.70712 -1.4334 -0.90084 2.80033 -1.71038 -0.165828 -0.800274 0.636839 
-0.23253 -0.672323 0.806316 -0.252885 0.111594 0.780916 -0.0300102 -0.0442081 0.0915187 
-0.148938 0.920776 0.21456 -0.076619 0.695031 0.0332937 0.325934 -1.78129 -0.269921 
0.208765 -1.28055 -0.177442 0.306904 -1.43167 -0.357494 -0.453154 2.77048 -1.97328 
-1.79271 2.61485 -1.22836 -0.500622 1.25996 1.05865 -0.463078 1.3637 0.896641 
-0.550937 1.37262 1.05825 0.155789 -0.750261 -0.207351 0.0924257 -0.826802 -0.0285172 
-2.85358 1.4646 0.0312201 -2.90033 1.45543 0.120024 -2.42759 1.2856 0.424705 
-1.8758 1.17221 0.988922 -1.89418 1.26294 1.00012 -1.33264 1.02851 1.34055 
0.574848 -2.44461 -0.358463 0.405128 -2.40281 -0.0605638 0.379747 -2.28982 -0.117968 
-2.92325 1.49104 0.172996 -3.23215 1.59665 -0.144943 -3.19202 1.69771 -0.363355 
-2.78795 1.51207 -0.0673374 -2.45015 1.33924 0.556514 -2.34773 1.68196 -0.268359 
-2.32077 1.83191 -0.434422 -2.76456 2.33894 -0.948633 -2.05912 1.39099 0.145049 
-2.5791 1.65548 -0.25335 -3.10605 2.05189 -0.716607 -2.69286 1.56842 -0.148248 
-0.107107 -0.725721 0.465566 -0.0612033 -1.43055 0.491582 -2.21125 1.2778 0.346627 
0.0731351 -1.81176 0.294232 0.0620551 -1.43289 0.209379 0.203598 -1.98484 0.0796469 
-0.878401 0.974316 1.20012 -0.964904 1.04994 1.07438 -1.21339 1.02803 0.982558 
0.807221 -2.15544 -1.06139 0.869506 -2.28398 -1.05712 0.792638 -2.3123 -0.899256 
-0.0561334 -0.675509 0.318107 0.0149796 -0.788235 0.157732 -1.39173 0.985434 1.07025 
-1.72644 1.09117 0.774832 -1.89666 1.12056 0.750291 -0.689884 1.56774 -0.0959141 
-0.482104 1.43176 0.294429 0.957555 -2.34647 -1.15885 0.897685 -2.12653 -1.2264 
0.0317642 2.47089 -2.14722 0.452649 1.52703 -1.91056 -0.879593 1.55748 0.0297783 
-0.912276 1.66701 -0.21776 0.822453 -1.46591 0.351842 0.763355 -1.24746 0.169464 
0.721573 -1.28607 0.383951 0.663353 -1.27577 0.548486 1.1888 -1.45192 -1.02609 
1.0994 -0.994133 -1.06101 1.05483 -1.22668 -0.819507 0.917728 -1.69694 0.447 
0.92924 -1.62017 0.171216 1.00915 -1.90884 0.495863 0.928674 -1.78838 0.686972 
1.29209 -0.788485 -1.66664 1.25564 -0.485784 -1.84692 1.1069 -0.143251 -1.71601 
1.15244 -2.27399 0.512844 1.0828 -2.08837 0.517218 1.11174 -2.20413 0.782537 
1.36231 -2.72 -0.325663 1.29138 -2.52598 -0.153031 1.29524 -2.6547 0.0968061 
1.22391 -2.53576 0.675785 1.25767 -2.61191 0.407571 1.21352 -2.45908 0.4784 
1.21153 -2.37366 0.175397 1.06829 -1.96942 0.203315 1.42251 -3.09294 -0.32867 
1.41338 -2.94112 -0.381909 1.35419 -2.91053 -0.0237885 1.26041 -2.10719 -0.6651 
1.14105 -2.00699 -0.205808 1.23522 -2.28465 -0.242642 0.944908 0.562242 -2.09717 
0.81332 0.891351 -2.06366 1.10747 0.0561758 -1.98564 0.951405 0.141497 -1.54652 
0.817328 0.646335 -1.77545 -0.153809 0.160206 0.425189 0.652453 1.21294 -1.99709 
0.467109 1.80769 -2.18954 0.895672 0.690767 -2.15521 1.54402 -1.39626 -2.2251 
1.43901 -0.969832 -2.18289 1.62655 -1.67559 -2.18145 1.29589 -2.74355 0.261221 
1.60378 -1.72148 -2.25243 1.3573 -0.857548 -2.20908 1.70403 -2.20702 -2.08086 
1.62449 -1.75985 -2.0655 1.46315 -3.24322 -0.497876 1.5585 -3.39033 -0.884623 
0.768338 1.00223 -2.18829 1.31115 -2.8594 0.224223 1.4815 -2.88102 -0.827581 
1.04172 -1.7915 -0.0761271 1.12209 -0.242594 -2.1715 1.32487 -2.96975 0.115051 
1.28032 -2.81659 0.385567 0.956893 -1.52015 -0.163881 1.32713 -3.12514 -0.10059 
1.3315 -3.05499 0.00626538 1.28194 -2.99868 0.0947491 1.61009 0.19249 0.827315 
1.3437 -3.30117 -0.417408 1.30313 -3.15974 -0.190662 1.27067 -3.16068 -0.259459 
1.22473 -3.04479 -0.128259 1.3827 -3.10582 -0.155657 1.16478 -3.05664 -0.321713 
1.24889 -3.21485 -0.44312 1.25225 -3.1732 -0.334892 1.08336 -2.9492 -0.319385 
1.01231 -2.8574 -0.310792 1.11862 -3.04269 -0.417219 1.10005 -2.93129 -0.248685 
1.38684 -1.33392 -2.18895 1.63845 -2.02387 -2.25635 1.61887 -2.19522 -2.22094 
0.896964 -2.66236 -0.218102 0.915793 -2.73057 -0.272811 1.76765 -3.19098 -1.85327 
1.77108 -2.90318 -1.9862 1.77533 -3.2226 -1.94529 1.74531 -3.24531 -1.94438 
1.72953 -2.80849 -2.14855 1.2396 -3.23844 -0.541826 0.787795 -2.57047 -0.194309 
0.64786 -2.37678 -0.0716243 0.673579 -2.44996 -0.111671 0.805364 -2.68046 -0.294086 
0.743636 -2.57082 -0.198153 0.597143 -2.39579 -0.0551935 0.532189 -2.37937 -0.00665085 
0.449292 -2.2688 0.0883963 0.815417 -2.71897 -0.362181 0.644014 -2.52185 -0.143961 
0.209373 -2.1571 0.344692 0.322841 -2.25711 0.212419 0.318126 -2.19595 0.224575 
0.379483 -2.18279 0.162404 -0.0560317 -2.04351 0.667506 0.0772743 -2.16292 0.498235 
0.0826049 -2.11397 0.494331 0.0816469 -2.05913 0.49485 -0.182719 -1.87658 0.830961 
-0.161965 -1.9171 0.802959 0.377711 -2.39988 0.103412 0.36367 -2.34045 0.149914 
0.206491 -2.27311 0.331332 1.67121 -2.54107 -1.80606 1.53768 -2.4041 -1.44814 
1.57237 -2.74202 -1.34127 0.462953 -2.37368 0.0506481 1.03916 -2.59877 -1.10496 
1.13074 -2.86474 -1.05712 0.603589 -2.55003 -0.21208 0.391766 -2.42804 0.0329114 
1.7541 -2.45812 -2.20238 0.300606 0.548848 1.26421 -0.0401133 -2.08855 0.626738 
0.0396473 -2.17351 0.537617 -0.103096 -2.01123 0.720995 0.916288 0.204461 -2.12881 
1.13824 -0.507416 -2.14536 1.14102 -0.787715 -2.09253 0.0332045 -1.9837 0.434236 
1.12288 -0.997911 -2.02714 0.960113 -0.466901 -2.01241 1.13123 -1.237 -1.96967 
1.29821 -1.54726 -2.06089 0.340618 -2.07014 -0.170891 0.461172 -2.06293 -0.433336 
1.06391 -1.27489 -1.88177 1.2241 -1.71904 -1.91605 1.20739 -3.18852 -0.833536 
1.37756 -3.4204 -0.997718 1.00274 -1.51527 -1.7183 1.03405 -1.41238 -1.79722 
1.15058 -1.85671 -1.764 1.04235 -2.35517 -1.30483 1.02083 -2.94283 -0.653655 
1.18876 -3.07599 -0.964021 0.915395 -0.918369 -1.84096 1.54272 -2.17653 -2.15519 
1.04972 -1.97304 -1.56145 0.939195 -1.73992 -1.52716 0.970541 -1.62433 -1.62778 
0.890205 -1.31799 -1.66342 0.89432 -1.93572 -1.35167 0.909099 -1.82981 -1.43631 
0.97792 -2.06321 -1.39563 0.712769 -2.42027 -0.650222 0.853973 -1.61805 -1.48009 
0.843924 -1.94775 -1.27355 0.681291 -2.26835 -0.736403 0.57725 -2.15552 -0.621903 
0.664584 -2.11843 -0.832709 0.760625 -2.01593 -1.10091 0.803265 -1.99202 -1.18549 
0.193268 -2.28552 0.265604 0.719337 -1.90645 -1.12197 0.7063 -2.01854 -1.00093 
0.634675 -1.9753 -0.880249 0.554456 -1.8694 -0.756582 0.59569 -1.81213 -0.893675 
1.33264 -2.79774 -1.54427 1.18662 -2.3558 -1.56283 1.27203 -2.34668 -1.71061 
0.789953 -1.79829 -1.30148 -0.00697825 -2.07723 0.551384 1.70008 -3.53602 -1.61608 
1.68447 -3.28172 -1.85314 -0.279352 -1.25346 0.961608 -0.224579 -1.54713 0.867375 
-0.213422 -1.7466 0.866265 -0.14293 -1.80766 0.742851 -0.285942 -0.41684 0.949631 
-0.22463 -1.21771 0.83727 -0.313075 -0.429433 1.03831 -0.343193 0.587139 1.12913 
-0.319044 -0.80656 1.05159 -0.301168 1.14871 0.800044 -0.345588 1.37105 1.00495 
-0.389237 1.76063 1.23708 -0.437968 2.82463 1.28827 -0.461448 3.45349 1.20645 
-0.45348 3.63936 1.00923 -0.385201 2.46165 0.921011 -0.299879 1.53235 0.688717 
-0.507778 4.11822 1.51994 -0.470727 4.32864 0.911977 -0.413311 3.45295 0.739158 
-0.411517 1.95402 1.42707 1.33793 -0.661173 -1.9674 -0.245246 1.19364 0.523181 
-0.208551 1.14659 0.38102 0.355575 -1.3661 -0.494603 0.239022 -0.925305 -0.358581 
1.29991 -2.18426 -1.82907 0.383457 -1.2382 -0.603944 0.466587 -1.69391 -0.631683 
0.12776 -0.264417 -0.273955 0.520133 -1.96595 -0.620527 -0.34745 2.9143 0.496244 
-0.284153 2.56092 0.277305 -0.255173 1.96491 0.333791 -0.338874 2.40529 0.627458 
-0.0109602 0.591911 -0.136059 -0.159494 1.63435 0.0463973 -0.272221 2.80426 0.15258 