# vtk DataFile Version 3.0
vtk output
ASCII
DATASET POLYDATA
POINTS 853 float
14.1305 0.645117 30.6075 13.9974 -0.303741 30.4392 13.9282 -1.31865 30.2076 
13.9004 -2.40788 29.8515 13.8877 -3.6252 29.3568 13.9206 -4.88409 28.7215 
13.9674 -6.10099 27.9291 14.0393 -7.32655 26.9368 14.1721 -8.4789 25.8351 
14.3234 -9.49375 24.7669 14.4819 -10.4704 23.7004 14.6227 -11.3849 22.6919 
14.7203 -12.2474 21.7183 14.7167 -13.0595 20.7485 14.6071 -13.7771 19.8406 
14.4685 -14.4336 18.8733 14.1932 -14.9887 17.8316 13.7789 -15.45 16.7022 
13.2647 -15.7981 15.4543 12.597 -16.0379 14.1922 11.8685 -16.1348 13.0471 
11.2596 -15.9818 12.0447 10.9235 -15.5102 11.301 10.9184 -14.6969 10.8768 
11.1926 -13.5719 10.7416 11.5568 -12.3516 10.9561 11.986 -11.2243 11.5102 
12.5445 -10.2594 12.3249 13.0706 -9.48344 13.3163 13.2458 -8.88225 14.3995 
13.0367 -8.47231 15.503 12.7367 -8.28238 16.5555 12.5471 -8.19816 17.5099 
12.4144 -8.06186 18.4286 12.2445 -7.76932 19.3673 12.009 -7.25156 20.3177 
11.7476 -6.53192 21.2728 11.5034 -5.57703 22.2718 11.3512 -4.47338 23.2711 
11.2977 -3.27895 24.2475 11.3955 -1.99073 25.1326 11.6623 -0.73393 25.8346 
12.0121 0.440235 26.3437 12.3397 1.48028 26.7208 12.6186 2.432 27.0908 
12.8798 3.39424 27.424 13.1106 4.32192 27.7325 13.3505 5.14123 28.0633 
13.6866 5.84653 28.3929 14.1731 6.44276 28.7068 14.7484 6.87398 29.0154 
15.3329 7.06705 29.3398 15.8201 6.98548 29.6423 16.0646 6.63756 29.9026 
16.0405 6.03907 30.1471 15.781 5.20579 30.3881 15.392 4.2488 30.5784 
14.9845 3.30567 30.6625 14.6056 2.40147 30.7174 14.3173 1.53043 30.7212 
14.098 1.12903 30.2412 13.9902 0.516714 30.2479 13.8679 -0.236454 29.9271 
13.8522 -0.837794 29.902 13.781 -1.75213 29.5489 13.7722 -2.53665 29.3501 
13.6986 -3.41026 28.8218 13.7545 -4.17052 28.5698 13.7511 -5.19055 27.8848 
13.8324 -6.06353 27.3501 13.819 -6.84942 26.5651 13.9118 -7.59554 25.9084 
14.0367 -8.5198 24.963 14.1891 -9.23557 24.2965 14.2346 -9.86518 23.4583 
14.3708 -10.4996 22.9033 14.4306 -11.2064 22.0138 14.434 -11.7898 21.283 
14.4125 -12.3419 20.4914 14.3651 -12.8243 20.0246 14.218 -13.3697 19.2328 
14.0002 -13.7287 18.6257 13.7321 -14.0779 17.8016 13.4713 -14.4144 17.1911 
13.0566 -14.7496 16.235 12.7051 -14.8561 15.5297 12.3239 -15.1327 14.6281 
11.9168 -15.2009 13.7961 11.4704 -15.3349 12.9233 11.2483 -15.0889 12.4127 
11.016 -15.017 11.8519 10.9687 -14.6184 11.5107 11.0853 -13.9736 11.3298 
11.2597 -13.3062 11.3129 11.4118 -12.6631 11.3386 11.6189 -11.9928 11.5945 
11.842 -11.3308 12.1834 12.0395 -10.8301 12.6842 12.2278 -10.3586 13.4117 
12.4496 -9.93844 14.1414 12.5519 -9.584 15.0346 12.5914 -9.43711 15.7362 
12.5685 -9.27574 16.5677 12.6002 -9.13444 17.1484 12.5822 -8.90134 18.0444 
12.5803 -8.83841 18.5931 12.4788 -8.41619 19.5913 12.342 -8.0959 20.1748 
12.1553 -7.44697 21.0881 11.9877 -7.00892 21.6837 11.7809 -6.02959 22.6987 
11.647 -5.3481 23.2923 11.5622 -4.31309 24.1737 11.5091 -3.58269 24.7569 
11.5568 -2.33462 25.5892 11.7103 -1.56139 26.0283 11.9395 -0.464351 26.5613 
12.1438 0.298202 26.8629 12.2855 1.07798 27.0777 12.5507 1.7624 27.3186 
12.7862 2.6105 27.5515 13.0243 3.14089 27.8076 13.1897 3.87683 27.9686 
13.4622 4.47158 28.1659 13.7233 5.21019 28.3642 14.0449 5.66613 28.5658 
14.358 6.14733 28.7657 14.6536 6.42276 28.9345 15.0343 6.71061 29.1404 
15.2916 6.70228 29.3145 15.552 6.71639 29.477 15.7195 6.54479 29.6495 
15.7221 6.13158 29.8301 15.677 5.68512 30.045 15.4291 5.06241 30.0956 
15.2961 4.53335 30.2623 14.9483 3.73269 30.2979 14.7164 3.11223 30.4364 
14.434 2.42517 30.2997 14.3034 1.8983 30.3911 15.3395 6.22472 29.4589 
15.0509 6.35024 29.2117 15.2671 5.56977 29.7205 14.5909 5.80742 28.9944 
14.9615 5.85737 29.3128 14.8915 4.48083 29.8506 14.0587 4.85501 28.7624 
14.6404 5.0851 29.295 14.4268 3.23495 29.8937 13.5405 3.64329 28.5071 
13.7204 0.698236 29.573 14.0176 1.98916 29.7985 12.6676 1.02125 27.8099 
13.079 2.36406 28.1921 11.2911 -13.4301 11.901 12.089 -4.27464 25.2594 
12.0798 -2.3744 26.4336 14.1977 3.95248 29.2259 12.443 -0.265443 27.4066 
11.1833 -14.1971 12.1148 11.4903 -12.5466 11.9739 13.3396 -3.89687 27.7221 
13.447 -2.26444 28.632 13.5037 -0.739093 29.1258 13.8764 -9.7421 22.5756 
13.8601 -11.8165 19.8707 11.75 -6.38252 22.0009 12.2715 -6.11944 23.7376 
12.4556 -8.37385 18.9942 11.3922 -2.84913 24.978 11.5 -14.205 13.1576 
11.7644 -11.816 12.9687 13.4126 -5.58352 26.649 13.722 -8.52349 23.8989 
12.842 -9.06239 20.3148 12.8457 -9.82426 18.5712 13.5413 -6.80486 25.7038 
11.765 -3.1328 25.5436 12.5023 -7.72727 22.0161 13.9461 -10.74 21.3149 
13.0849 -13.1616 17.3161 13.7545 2.74805 29.0906 12.1534 -6.82154 22.5424 
12.7583 -9.23471 19.3217 11.5078 -13.2936 12.6483 11.961 -13.9394 14.3637 
11.9849 -11.283 14.1725 13.5889 -12.55 18.6627 12.6982 -10.3048 16.9868 
12.4878 -13.6618 15.9189 12.3759 -10.7708 15.6009 12.4956 -3.48028 26.4839 
13.3811 1.59661 28.9071 11.775 -12.8426 13.7491 11.9948 -5.13954 24.3128 
12.6733 -5.42024 25.3408 12.7154 -9.90226 17.7911 12.6434 -8.33546 21.1512 
12.918 -7.43619 23.4665 13.2995 -10.2469 19.9991 12.8133 -2.48979 27.462 
13.0999 -11.1484 18.3543 13.3007 -9.40044 21.4493 13.0376 -1.49583 28.1799 
12.9138 -0.623102 28.2202 13.4945 -13.1829 18.064 13.0898 -12.094 17.812 
13.904 -12.463 19.3882 13.4342 -11.5962 19.1516 12.2826 -14.2131 15.1514 
12.1702 -13.0995 15.1576 12.3674 -12.1919 15.975 12.8936 -13.8034 16.6764 
12.6375 -12.8391 16.6125 12.6969 -11.5899 16.8186 12.2187 -10.5633 14.808 
12.1225 -11.6743 15.057 12.5445 -10.2409 16.2613 13.2063 -8.58588 22.513 
13.4733 -7.40583 24.7203 13.0247 -6.39412 24.8962 12.8891 -11.0742 17.5464 
12.8642 -4.56784 26.4262 13.8059 -11.1297 20.4173 13.4619 -10.136 20.7643 
12.4137 -1.40123 27.2179 13.0967 0.37078 28.5824 11.9698 -12.5117 14.577 
13.22 -10.6492 19.3202 14.1171 -14.3412 18.3124 13.8879 -13.9782 18.1857 
13.9308 -14.4598 17.8599 11.8575 -6.69376 21.8211 12.062 -6.96538 22.0508 
11.9045 -6.5787 22.2198 13.6298 -14.2486 17.5331 13.8222 -14.7398 17.4756 
13.6248 -14.9333 16.9977 13.9863 -15.2275 17.2824 14.2433 -14.1028 18.7528 
14.359 -14.7287 18.3609 11.7515 -6.19427 22.3366 11.6297 -5.82335 22.4999 
11.6382 -6.06343 22.0707 14.3086 -13.1186 19.6375 14.4285 -13.6059 19.5251 
14.4949 -13.284 19.9755 14.6578 -13.4248 20.2982 14.5559 -12.9879 20.3567 
13.4344 -13.7133 17.5793 13.2768 -13.845 17.2769 14.3477 -13.88 19.1174 
14.1067 -13.5378 18.9336 13.9268 -13.0178 18.9687 13.8144 -13.1719 18.6912 
14.5475 -14.1147 19.3664 12.5864 -8.87536 18.3593 12.6937 -9.35075 18.2903 
12.7016 -9.26595 18.5954 13.613 -13.631 17.9468 13.3139 -13.1753 17.7199 
12.2021 -15.6586 13.9619 11.9133 -15.7005 13.4707 12.233 -16.1099 13.6019 
12.5187 -8.58961 18.7831 12.4237 -8.23595 18.7582 12.4936 -8.49002 18.4951 
11.355 -13.7727 12.4166 11.3843 -13.3804 12.2251 11.2492 -13.7553 12.0057 
11.6216 -15.7183 12.9736 11.6672 -15.2507 13.3191 12.1263 -15.1644 14.219 
12.4616 -15.601 14.4361 11.3808 -15.6754 12.5443 11.5337 -16.0966 12.5315 
13.1826 -15.2809 15.9177 13.5437 -15.6431 16.0932 13.4007 -15.1286 16.4415 
13.2771 -14.6148 16.7212 12.9795 -13.5224 16.9873 13.1424 -14.0842 16.9156 
12.733 -15.4992 14.9688 12.9158 -15.2787 15.481 12.5643 -15.0487 15.1201 
12.8751 -14.8282 15.8439 12.1235 -10.8578 14.5247 12.2776 -10.2663 14.5046 
12.1829 -10.5259 14.1506 12.4627 -14.5394 15.3359 12.2815 -14.6467 14.8908 
12.9401 -15.9302 14.8108 11.9659 -6.08962 23.1051 11.9062 -5.71986 23.4706 
11.7226 -5.74625 22.9577 12.2082 -13.7205 15.1555 12.3719 -13.9622 15.4953 
12.3016 -13.3422 15.5434 13.8828 -12.1485 19.6409 14.1283 -12.6391 19.6863 
14.1508 -12.3542 19.9798 13.2284 -7.39386 24.1582 13.2253 -6.91153 24.7168 
12.9365 -6.86348 24.1758 14.6784 -11.8203 22.2056 14.5556 -11.34 22.3316 
14.5915 -11.7209 21.8959 14.2107 -9.53667 23.8861 14.0194 -8.90735 24.1944 
14.0168 -9.25942 23.656 14.4998 -10.9125 22.8129 14.3859 -10.7853 22.4989 
14.6041 -12.3971 21.0876 14.7405 -12.6628 21.2315 14.602 -12.0467 21.5129 
14.4419 -10.5278 23.2419 14.5567 -10.9406 23.1822 12.5872 -8.03972 21.6141 
12.3081 -7.6169 21.5009 12.3792 -7.88021 21.0834 14.2656 -9.36883 24.5144 
14.3309 -9.78548 24.0555 14.403 -9.97744 24.2419 13.7364 -0.392726 29.6078 
13.7987 0.136323 29.7608 13.5909 0.0132398 29.3379 14.3649 -10.1284 23.5811 
14.1997 -8.98219 24.9334 14.1098 -8.88853 24.6029 14.2453 -8.99774 25.2964 
14.1305 -8.53198 25.407 14.0725 -9.73696 23.1329 14.1889 -10.2068 22.757 
14.2987 -10.1932 23.1692 13.7406 -0.832428 29.6002 13.6647 -1.32701 29.3426 
13.8102 -1.2351 29.7269 13.1489 -2.44174 28.0248 13.2227 -1.8031 28.3793 
12.9353 -1.95339 27.8577 13.8788 -8.43513 24.5026 13.5783 -9.5799 21.9999 
13.6379 -10.0603 21.4392 13.9051 -10.2789 21.8709 14.4482 -11.5334 21.6274 
14.165 -12.0997 20.2091 14.4164 -12.5961 20.2915 14.2058 -11.2809 21.2837 
14.2142 -10.983 21.7002 14.1719 -10.5225 22.2386 14.5705 -12.6496 20.6485 
14.4293 -12.1101 20.8532 12.0626 -7.20544 21.4334 12.2039 -7.33522 21.8132 
12.4919 -7.11489 22.9529 12.3487 -7.30017 22.3269 12.7082 -7.66878 22.672 
11.721 -6.42639 21.6963 11.864 -6.81289 21.4712 11.9515 -7.0274 21.1248 
12.2455 -7.77243 20.6277 12.0627 -7.3444 20.6952 12.1681 -7.6817 20.2132 
13.7209 -7.52549 25.3219 13.7159 -7.19782 25.7758 13.486 -7.0494 25.2318 
12.5598 -8.52091 20.2327 12.4275 -8.2937 19.8383 12.6106 -8.68981 19.8777 
13.7835 -9.11619 23.2222 12.9143 -8.49518 21.801 12.9641 -8.83704 21.3134 
13.2548 -9.00097 21.9683 14.0629 -8.01918 25.9296 13.9614 -8.04468 25.4241 
13.9086 -10.9766 20.8904 14.1572 -11.4948 20.8945 11.5402 -5.43166 22.8034 
10.9681 -15.2703 11.6068 10.9758 -14.7958 11.6894 10.9222 -15.0131 11.3848 
11.4293 -3.21277 24.8436 11.622 -3.4133 25.1102 11.5243 -2.97578 25.2104 
11.0118 -14.3226 11.4293 10.9962 -14.2885 11.079 10.9345 -14.6848 11.2092 
10.8817 -15.1458 11.0514 11.0909 -15.4644 11.9019 11.0534 -15.7875 11.6279 
11.46 -2.57299 25.2756 11.4567 -2.16855 25.3795 11.3665 -2.51844 25.0056 
11.0441 -14.4024 11.7596 11.1187 -14.0522 11.7077 11.2282 -15.4897 12.258 
[...]
POINT_DATA 853
VECTORS velocity double
0.772022 -3.57017 -0.508577 0.983755 -3.54513 -0.628947 1.13598 -3.40236 -0.562277 
1.251 -3.17202 -0.330292 1.33152 -2.83954 0.0426814 1.33133 -2.43012 0.427334 
1.20763 -1.95885 0.669755 0.926076 -1.40728 0.742892 0.541743 -0.863757 0.726766 
0.167714 -0.428011 0.789152 -0.174133 -0.103978 1.014 -0.43219 0.0724403 1.31107 
-0.573819 0.103517 1.50567 -0.583895 0.0138058 1.47466 -0.47184 -0.141913 1.22838 
-0.249355 -0.270593 0.838547 0.0811109 -0.261546 0.467856 0.559735 -0.088796 0.248234 
1.20297 0.171108 0.250085 1.92669 0.288504 0.399914 2.48998 0.164617 0.540521 
2.68184 0.00615927 0.61242 2.45153 0.0801479 0.669671 1.79593 0.526062 0.786538 
0.618433 1.33231 0.933946 -0.831284 2.12543 0.978861 -2.19763 2.53179 0.842821 
-3.26175 2.51216 0.581031 -3.81382 2.32659 0.32614 -3.95528 2.37225 0.113527 
-3.87359 2.80793 -0.121499 -3.57316 3.3889 -0.374342 -3.15653 3.83431 -0.595481 
-2.70075 4.11668 -0.826711 -2.19188 4.24699 -1.1533 -1.60028 4.20652 -1.63659 
-0.909118 3.93049 -2.20847 -0.147238 3.3592 -2.76564 0.515317 2.49065 -3.08587 
0.92453 1.42046 -3.09913 1.01184 0.27882 -2.92053 0.915619 -0.83427 -2.65598 
0.788518 -1.78778 -2.3369 0.674142 -2.45638 -1.99445 0.567824 -2.87517 -1.64642 
0.412696 -2.92081 -1.2831 0.225374 -2.49591 -0.922255 0.0308967 -1.65077 -0.543246 
-0.186785 -0.426895 -0.0822328 -0.433386 1.13464 0.503498 -0.666197 2.72105 1.14431 
-0.858825 3.90139 1.75722 -0.989967 4.35947 2.22744 -1.04902 3.96726 2.46046 
-1.03275 2.74397 2.43515 -0.893135 0.81675 2.08786 -0.600617 -1.12171 1.4662 
-0.218752 -2.44678 0.783183 0.171403 -3.15915 0.195595 0.503359 -3.45958 -0.229162 
0.723593 -3.78935 -0.542556 0.883514 -3.77777 -0.674149 1.07807 -3.80063 -0.840581 
1.15618 -3.66005 -0.791035 1.28574 -3.46093 -0.719189 1.34268 -3.2044 -0.504719 
1.41447 -2.87142 -0.343249 1.40127 -2.57965 -0.0539303 1.33864 -2.09513 0.155288 
1.18848 -1.70275 0.354072 0.969407 -1.20635 0.36049 0.709437 -0.811977 0.424491 
0.335959 -0.31134 0.501483 0.0681999 -0.0470059 0.64612 -0.21881 0.296929 0.815313 
-0.397377 0.376112 1.04575 -0.619599 0.549225 1.30157 -0.73465 0.600857 1.44288 
-0.781601 0.600057 1.44918 -0.726796 0.454697 1.38706 -0.609505 0.33121 1.16606 
-0.469022 0.264911 0.959745 -0.239157 0.258126 0.719467 0.0379321 0.236936 0.564084 
0.49569 0.336243 0.489657 0.832276 0.457653 0.560976 1.37934 0.505148 0.647184 
1.77816 0.517968 0.775069 2.17571 0.401137 0.819109 2.11033 0.45459 0.892687 
2.11862 0.418162 0.870826 1.77662 0.627875 0.923092 1.10638 1.06437 1.0196 
0.325587 1.53222 1.09644 -0.452661 1.93336 1.11112 -1.28296 2.25116 1.09016 
-2.08403 2.37426 1.04286 -2.63675 2.3633 0.938451 -3.0542 2.26758 0.812031 
-3.32252 2.24224 0.638157 -3.36138 2.36534 0.445132 -3.23092 2.56012 0.319057 
-3.01233 2.88415 0.149388 -2.85672 3.13752 0.0170088 -2.56691 3.48426 -0.195345 
-2.32296 3.56157 -0.260358 -1.91357 3.70619 -0.590695 -1.62046 3.70525 -0.856385 
-1.0848 3.54846 -1.35528 -0.679465 3.30847 -1.665 0.0436405 2.71856 -2.21258 
0.459785 2.25837 -2.49252 0.956455 1.38841 -2.69058 1.17199 0.746376 -2.71671 
1.26029 -0.292463 -2.66267 1.20895 -0.959412 -2.58018 1.08904 -1.84282 -2.40095 
0.99235 -2.3855 -2.22736 0.874635 -2.74852 -2.03006 0.770647 -3.09284 -1.78249 
0.60898 -3.23969 -1.46985 0.48507 -3.26347 -1.19194 0.29783 -2.92037 -0.898 
0.0946736 -2.38543 -0.544709 -0.134607 -1.35326 -0.146663 -0.333465 -0.369348 0.262012 
-0.510763 0.840758 0.67076 -0.644181 1.75112 1.02059 -0.784872 2.83327 1.44078 
-0.874954 3.18234 1.72539 -0.948202 3.55092 1.98595 -0.995382 3.42764 2.16435 
-0.994379 2.60632 2.18905 -0.952469 1.64432 2.13037 -0.802825 0.164511 1.77587 
-0.652673 -0.852187 1.5027 -0.330037 -2.19944 0.914901 -0.0693214 -2.85989 0.516296 
0.250833 -3.4258 0.0333516 0.442853 -3.58821 -0.201363 -0.90044 2.32128 1.79795 
-0.804118 2.1754 1.47707 -0.841265 0.930596 1.73043 -0.600274 0.518578 0.936926 
-0.760455 1.09982 1.39621 -0.514842 -1.38604 1.12124 -0.23162 -1.62762 0.206656 
-0.538245 -0.712305 0.952752 0.0171044 -3.11595 0.278852 0.257643 -3.19265 -0.580662 
0.985745 -4.0662 -0.960864 0.555914 -3.88627 -0.461354 1.03091 -3.50795 -1.78676 
0.702889 -3.7204 -1.26318 0.461316 1.43053 1.20803 1.32453 -0.00993619 -2.05582 
1.47632 -1.44738 -2.22628 -0.0871887 -2.68117 0.210703 1.24396 -2.9554 -2.07228 
1.32732 0.936666 1.10837 -0.624805 1.93476 1.24717 1.50639 -2.3442 -0.71666 
1.45326 -3.25634 -1.00749 1.29395 -3.84103 -1.188 -0.489621 0.994701 0.725146 
-1.01174 1.26202 1.31552 -0.411033 3.32139 -2.16737 0.511113 1.46389 -1.60716 
-2.26832 3.87221 -0.626761 1.15528 0.519117 -2.84611 1.17221 0.926241 1.15953 
-1.52311 2.02752 1.29734 1.25555 -1.34653 -0.325279 0.046987 0.491901 0.252927 
-1.41368 2.94218 0.00993332 -1.94012 2.88224 0.390067 0.850904 -0.617411 -0.0766022 
1.38123 -0.268217 -2.45191 -0.573794 2.58288 -0.868545 -0.858955 1.2676 1.14376 
-0.567887 0.928155 0.893014 0.440798 -3.77342 -0.550786 -0.175048 2.53926 -1.54686 
-1.83683 3.18854 0.0486572 0.221787 1.45089 1.31978 0.605665 0.94785 1.10325 
-1.99734 1.89959 1.199 -0.902041 1.0996 1.13606 -2.22272 2.43217 0.61737 
-0.00115568 0.856531 0.881753 -2.24353 2.00793 0.904747 1.55395 -1.4412 -1.73536 
0.87575 -4.09797 -1.1246 -0.383282 1.46679 1.38415 0.930983 1.03892 -2.06643 
1.15304 -0.204733 -1.23163 -2.18114 2.80081 0.405915 -1.05431 2.91832 -0.494249 
0.105831 1.29011 -0.620782 -1.32816 2.28173 0.776913 1.56015 -2.55989 -1.60224 
-1.46385 2.06455 0.936069 -0.895896 2.02366 0.41254 1.46953 -3.34045 -1.53726 
1.37454 -3.58459 -1.68684 -0.638375 0.786697 0.962618 -1.10932 1.5188 1.0197 
-0.892113 0.96006 1.28117 -1.18008 1.66459 1.14938 0.595536 0.749738 0.864301 
-0.287134 1.16132 1.1554 -1.0588 1.46273 1.09727 -0.10816 0.68012 0.7478 
-0.648855 1.16436 0.966802 -1.45087 1.76884 0.973151 -2.58217 2.04769 0.909108 
-1.5298 1.67634 1.19976 -2.47796 2.32426 0.640555 -0.440791 1.65577 -0.00879977 
0.492034 0.107968 -0.141236 0.794821 0.121466 -0.752766 -1.64602 2.09278 0.866609 
1.45374 -1.27515 -1.13397 -1.04714 1.50166 1.21873 -1.09436 1.98682 0.804027 
1.43245 -2.54015 -2.06382 1.19847 -3.96102 -1.51991 -0.760654 1.44224 1.3195 
-1.42571 2.24606 0.879083 -0.218577 -0.049578 0.737336 -0.334393 0.217805 0.808947 
-0.102624 0.0125013 0.621629 -0.560251 3.34743 -1.93092 -0.460284 2.9772 -1.59365 
-0.309243 3.00117 -1.90553 -0.116258 0.231564 0.638853 0.0866081 -0.0226054 0.490554 
0.295608 0.0328091 0.401096 0.299055 -0.192504 0.333945 -0.347488 -0.0280276 0.897901 
-0.0981783 -0.289523 0.639644 -0.185414 3.05232 -2.21696 -0.0376331 3.02272 -2.47714 
-0.328857 3.38951 -2.42985 -0.674123 0.380906 1.28898 -0.530139 0.0721427 1.19005 
-0.604967 0.147506 1.33687 -0.542807 -0.0597316 1.37775 -0.648018 0.211752 1.42913 
-0.352694 0.54369 0.788259 -0.232265 0.53603 0.731345 -0.441051 0.0100651 1.03746 
-0.551199 0.306206 1.06892 -0.731487 0.674811 1.16024 -0.674777 0.644961 1.08039 
-0.373723 -0.217012 1.04209 -2.42495 3.53044 -0.226777 -2.252 3.19713 0.0936535 
-2.15417 3.25785 0.0415172 -0.441789 0.509994 0.853841 -0.61067 0.856532 0.919602 
1.93453 0.38208 0.58036 2.17444 0.340933 0.642757 2.24395 0.24926 0.478004 
-2.31537 3.73397 -0.450542 -2.44859 3.99493 -0.725312 -2.50774 3.81277 -0.51354 
0.817121 1.19675 1.22752 0.371198 1.44337 1.26324 0.838819 1.21986 1.1795 
2.36878 0.270502 0.687176 1.9935 0.475812 0.818612 1.57785 0.524414 0.716169 
1.67933 0.385675 0.511266 2.46439 0.213279 0.7164 2.63954 0.0710473 0.584224 
0.836623 0.214216 0.3511 0.861913 0.0400931 0.220379 0.564145 0.120592 0.350063 
0.263895 0.266725 0.498761 -0.325707 0.775109 0.80952 -0.031793 0.486136 0.657258 
1.37131 0.353883 0.4397 1.03733 0.323292 0.419422 1.10938 0.467357 0.573718 
0.68559 0.399995 0.515458 -2.36609 1.97566 1.04075 -2.92745 2.14341 0.797024 
-2.76331 2.10739 0.919572 0.7407 0.60543 0.7132 0.981473 0.632989 0.769537 
1.57039 0.262614 0.318544 0.241105 2.22338 -1.96559 0.484313 1.92165 -2.09706 
0.228407 2.52725 -2.33848 0.225393 0.929858 1.01379 0.314504 0.794329 0.873453 
-0.149238 1.0276 1.03212 -0.95776 1.10881 1.3165 -0.813006 0.720955 1.33577 
-0.857975 0.818686 1.38549 0.341368 0.619872 -0.37368 0.612271 0.204894 -0.468172 
0.476154 0.749651 -0.760689 -0.518727 0.105106 1.43103 -0.526473 0.293658 1.32191 
-0.600873 0.319532 1.42472 -0.0735394 0.132099 0.714568 0.0782215 0.131261 0.499799 
-0.116245 0.404196 0.578841 -0.417736 0.233108 1.17955 -0.508901 0.487889 1.156 
-0.670519 0.302304 1.50512 -0.594899 0.0700304 1.52068 -0.645775 0.322309 1.4839 
-0.301363 0.151172 1.0439 -0.317827 0.00464354 1.16623 -0.806814 2.74515 -0.673894 
-0.843029 3.10595 -1.10627 -1.09393 3.2705 -0.934308 0.113567 -0.232515 0.719693 
-0.0446066 -0.0702997 0.812355 -0.00648385 -0.253284 0.880079 1.16456 -3.8704 -0.98144 
1.05623 -3.93722 -0.919958 1.15876 -4.01291 -1.13234 -0.195586 0.106159 0.910313 
0.26412 -0.399719 0.661394 0.191203 -0.154261 0.56539 0.351025 -0.631494 0.739929 
0.438985 -0.609151 0.622092 -0.310404 0.584858 0.750835 -0.440183 0.62019 0.941093 
-0.316342 0.348091 0.933524 1.21601 -3.75352 -0.932131 1.3026 -3.64097 -0.950803 
1.22316 -3.59496 -0.787517 1.52731 -2.96115 -1.28691 1.47127 -3.34144 -1.32888 
1.51849 -3.00643 -1.57527 0.231788 0.0434091 0.34998 -0.686104 1.51665 0.590294 
-0.871919 1.6217 0.823687 -0.718909 1.19593 0.961045 -0.687094 0.575514 1.39243 
-0.886133 0.904378 1.40093 -0.752203 0.507984 1.43178 -0.806106 0.932375 1.32828 
-0.725397 0.874255 1.24171 -0.594898 0.802121 1.0706 -0.688817 0.322642 1.47421 
-0.768149 0.600098 1.46678 -0.853558 3.41646 -1.52909 -0.639173 3.00058 -1.30658 
-0.0341641 1.96161 -1.10518 -0.361285 2.52105 -1.17488 -0.256366 1.98497 -0.716342 
-0.609843 3.60067 -2.2168 -0.795454 3.60962 -1.90692 -1.04352 3.77882 -1.7615 
-1.36958 3.66641 -1.11262 -1.33879 3.90466 -1.51542 -1.64092 3.97725 -1.2401 
0.606983 -0.393353 0.160491 0.77172 -0.692332 0.175343 0.69827 -0.264412 -0.146698 
-1.53268 3.36797 -0.460611 -1.79371 3.71027 -0.691724 -1.69686 3.40334 -0.341305 
-0.237859 0.801426 0.454982 -0.738771 2.30898 -0.227146 -0.967051 2.47295 -0.0316646 
-0.686736 1.87543 0.200053 0.633601 -0.864282 0.604217 0.524094 -0.539823 0.442385 
-0.950445 1.35944 1.20969 -0.871111 1.00463 1.36678 0.187991 2.81377 -2.66606 
2.31045 0.248361 0.772371 1.93931 0.52957 0.908124 2.11137 0.368498 0.806511 
1.16427 0.671639 -2.80831 1.2808 0.293235 -2.58637 1.25991 0.200537 -2.68883 
1.48396 0.822372 0.973965 1.42887 0.826697 0.91028 1.82071 0.561555 0.853697 
2.18255 0.253099 0.719269 2.43013 0.196459 0.749958 2.61651 0.0021739 0.636319 
1.20749 0.130333 -2.76384 1.15023 -0.0197919 -2.79039 1.09622 0.480877 -2.90634 
1.56668 0.786016 1.01373 1.19372 1.02104 1.07813 2.40987 0.243085 0.766129 
2.14731 0.41944 0.876265 0.9515 1.14215 0.966397 1.27527 0.894545 0.864991 
0.374821 1.49653 1.15665 0.701307 1.31392 1.0576 0.795899 1.25914 1.12134 
1.79626 0.64527 0.983155 2.15891 0.421601 0.862308 0.463947 1.4489 1.02532 
-0.0430891 1.73138 1.10915 -0.010079 1.71798 1.04128 -0.105404 1.764 0.975417 
-0.589224 2.00865 1.05234 -1.69758 2.39613 0.99305 -1.53807 2.38673 0.933762 
-1.14183 2.23432 1.03474 -0.859041 2.10231 1.11581 0.0233864 1.64655 1.24514 
-0.0906871 1.73679 1.18097 0.497303 -3.72928 -0.309299 0.671294 -3.88078 -0.538527 
0.578086 -3.70994 -0.37521 1.25892 0.946133 1.15358 1.75594 0.676511 1.01423 
1.72544 0.680043 1.0229 -0.53962 1.94962 1.17091 -1.05847 2.13952 1.16763 
-2.78313 2.56607 0.718389 -2.23362 2.47871 0.923635 -2.69063 2.48987 0.831877 
-2.42987 2.37889 0.98454 -2.93141 2.43598 0.79533 -2.81781 2.32418 0.896108 
-3.28362 2.39437 0.665287 0.179699 -3.34586 -0.183786 0.0934226 -3.01104 -0.184357 
0.353755 -3.54321 -0.567601 -3.60506 2.41361 0.446706 -3.51987 2.33671 0.556882 
-1.65339 2.32863 1.08219 -1.79092 2.22144 1.1808 -1.40252 2.19374 1.19261 
-1.0331 1.99749 1.30103 0.794628 -4.04374 -0.764489 0.829626 -3.94447 -0.714711 
-0.248707 1.71181 1.31495 1.10958 -2.61613 -2.18402 1.15402 -3.25496 -1.9588 
1.03981 -2.92433 -2.05498 -2.67777 3.79899 -0.498212 -2.40374 3.15649 0.103715 
-2.05212 2.84745 0.402338 -2.93762 4.00355 -0.714098 -2.86196 3.67834 -0.407391 
-3.04823 3.47845 -0.282674 -2.7282 3.34053 -0.104455 -2.27178 4.05396 -0.854356 
-2.09639 3.81379 -0.624347 -2.04175 3.9582 -0.850859 -2.96167 3.0089 0.0795713 
-2.64821 2.68468 0.374047 -2.5633 2.78875 0.327301 -1.88677 3.99504 -1.02005 
-1.90141 4.2498 -1.37977 -1.27435 4.10576 -1.91469 -0.883736 1.69276 1.78537 
-0.936118 1.87223 1.99139 -0.94968 2.38107 1.99341 -0.730154 1.9494 1.25593 
-0.795744 2.55841 1.45667 -0.724864 2.35295 1.25288 -0.45095 -0.0839591 0.556846 
-0.546926 0.711506 0.768547 -0.445422 0.355729 0.51226 -0.533255 3.69005 -2.50016 
-2.4582 4.19833 -0.967694 -1.08008 1.74993 1.03878 -1.20891 2.13442 0.803246 
-1.20291 1.94326 1.00219 -0.56595 1.21389 0.812545 -0.645154 1.28379 1.02231 
-3.73886 2.41572 0.258899 -3.72957 2.32452 0.365124 -3.38953 2.28619 0.529323 
-2.58229 2.11051 1.01971 -2.37055 2.16351 1.09524 -1.78684 1.94676 1.27501 
-0.162684 -2.22412 0.212703 -0.335336 -1.77297 0.602763 -0.390568 -1.22448 0.596189 
-3.65784 2.30783 0.461695 -3.91959 2.30186 0.218238 -3.93968 2.54837 0.00297822 
-3.69072 2.55993 0.162439 -3.2143 2.24113 0.726157 -3.28482 3.08936 -0.0677554 
-3.217 3.29992 -0.194742 -3.36739 3.62436 -0.479585 -3.15334 2.75775 0.198061 
-3.47739 2.92415 -0.0153787 -3.75202 3.10603 -0.253626 -3.6025 2.71798 0.0826677 
-0.833934 1.66602 1.59928 -0.794241 0.987039 1.53153 -3.29256 2.44488 0.392531 
-0.680576 0.323433 1.22539 -0.694215 0.820954 1.20291 -0.568479 -0.1588 0.931235 
-1.81037 1.89425 0.955768 -2.02249 2.08839 0.834332 -2.36102 2.15486 0.774407 
0.209175 -2.72632 -0.734827 0.284691 -3.03808 -0.775988 0.139735 -2.73272 -0.512858 
-0.786655 1.62532 1.43991 -0.722872 1.44052 1.2453 -2.44428 2.0273 0.907414 
-2.86014 2.2181 0.679969 -2.95908 2.18952 0.706642 -1.88678 3.49037 -0.314252 
-1.63232 3.08934 0.0400632 0.421145 -3.33004 -0.96319 0.388049 -3.12263 -1.03752 
0.214988 2.9507 -2.97086 0.474923 2.4354 -2.81599 -2.10987 3.41284 -0.126783 
-2.09539 3.60423 -0.357219 0.950954 -1.31066 0.54573 0.84998 -1.03498 0.417506 
0.808588 -1.11567 0.598349 0.734666 -1.12162 0.735229 1.22551 -0.811025 -0.795554 
0.991729 -0.0683223 -0.983674 1.05818 -0.607831 -0.576203 1.0822 -1.58103 0.562268 
1.09101 -1.46051 0.357652 1.19632 -1.83052 0.513916 1.0895 -1.6965 0.72545 
1.13493 0.545258 -2.04827 1.14202 0.766687 -2.4077 0.952351 1.22398 -2.38604 
1.3362 -2.27683 0.323597 1.27671 -2.0469 0.437206 1.2875 -2.20295 0.569505 
1.46153 -2.73149 -0.500696 1.44069 -2.50872 -0.283549 1.413 -2.72056 -0.197543 
1.34389 -2.63989 0.250032 1.37347 -2.71061 0.0235415 1.3676 -2.51288 0.177752 
1.38986 -2.36594 0.0252951 1.26767 -1.87351 0.255522 1.38837 -3.25701 -0.703774 
1.44139 -3.02409 -0.652572 1.38326 -3.05703 -0.432108 1.42203 -1.85382 -0.488697 
1.33436 -1.84821 -0.0803072 1.41732 -2.18416 -0.225509 1.0601 1.08878 -2.90214 
0.940094 1.4876 -2.93385 1.09788 1.00948 -2.70756 0.715175 1.64258 -2.28128 
0.726108 1.85893 -2.63072 -0.851294 2.24496 1.62844 0.74697 1.95588 -2.90776 
0.754814 1.97999 -3.12453 1.06444 0.895374 -2.96004 1.36615 -0.797928 -2.48372 
1.33064 -0.302716 -2.57595 1.45035 -0.874207 -2.32468 1.37387 -2.87223 -0.15943 
1.36414 -1.24845 -2.41866 1.24216 -0.571189 -2.63423 1.53864 -1.48001 -2.01291 
1.48822 -0.839697 -2.1322 1.3641 -3.44645 -0.866967 1.39045 -3.57229 -1.13533 
1.00293 0.863291 -3.02822 1.33623 -3.03986 -0.267855 1.50655 -2.83823 -0.903285 
1.22438 -1.61603 0.101167 1.10447 -0.344946 -2.75019 1.29817 -3.19466 -0.408831 
1.29634 -3.02082 -0.159929 1.09569 -1.27209 0.0924358 1.21114 -3.43806 -0.621289 
1.26088 -3.31884 -0.523848 1.19786 -3.29938 -0.466584 1.78854 0.617519 0.967985 
1.12335 -3.73586 -0.827502 1.14464 -3.53921 -0.683504 1.07983 -3.61096 -0.709697 
1.06505 -3.48168 -0.615179 1.32322 -3.33001 -0.623642 0.928746 -3.67671 -0.663051 
0.982476 -3.80423 -0.766853 1.02995 -3.68732 -0.732711 0.829702 -3.67675 -0.589899 
0.738309 -3.67118 -0.511588 0.819577 -3.80327 -0.632118 0.884303 -3.57522 -0.591192 
1.15822 -1.43704 -2.49368 1.33685 -1.72525 -2.35175 1.27266 -2.13396 -2.29712 
0.645586 -3.53381 -0.387651 0.62029 -3.63003 -0.389732 1.4788 -3.05923 -1.76558 
1.52007 -2.57491 -1.85717 1.41417 -3.17499 -1.86338 1.33718 -3.33956 -1.87978 
1.33481 -2.76128 -2.09629 0.924083 -3.91329 -0.778893 0.470267 -3.53098 -0.21172 
0.345285 -3.33842 -0.0342472 0.326907 -3.40767 -0.030279 0.364118 -3.62829 -0.155068 
0.353917 -3.5284 -0.0964339 0.209556 -3.2996 0.119023 0.0886418 -3.16933 0.272279 
0.0357675 -3.01786 0.374903 0.307646 -3.6203 -0.14361 0.163633 -3.35539 0.12239 
-0.289778 -2.29542 0.88124 -0.184775 -2.60678 0.68629 -0.136856 -2.67849 0.638078 
-0.0205098 -2.86966 0.471443 -0.633126 -0.970236 1.49833 -0.509961 -1.53705 1.22804 
-0.459332 -1.73774 1.17164 -0.415821 -1.86858 1.12036 -0.761928 -0.218612 1.79712 
-0.768667 -0.165355 1.77156 -0.250786 -2.41273 0.675871 -0.199688 -2.59039 0.66293 
-0.401725 -1.94238 0.989761 1.57745 -2.03238 -1.64064 1.56192 -1.96701 -1.26288 
1.56148 -2.49268 -1.23457 -0.0439316 -2.95722 0.442664 0.49463 -3.59173 -0.924939 
0.593208 -3.84035 -0.908898 -0.0356517 -2.95112 0.250938 -0.300602 -2.12721 0.658375 
1.46935 -1.97996 -2.14629 0.666721 1.2039 1.27596 -0.700528 -0.46773 1.52162 
-0.590653 -1.13178 1.3376 -0.734031 -0.351346 1.64941 0.968997 -0.29477 -2.79518 
1.05395 -0.81708 -2.65605 0.994702 -1.31999 -2.53239 -0.69774 0.0350405 1.3464 
0.934731 -1.73529 -2.40865 0.85753 -1.33724 -2.50477 0.90435 -2.09679 -2.28719 
1.02483 -2.11182 -2.32075 -0.441856 -0.585767 0.606369 -0.312899 -0.894859 0.274798 
0.832077 -2.32759 -2.16881 0.932887 -2.58718 -2.12972 0.731175 -4.06756 -0.797496 
0.936378 -4.13683 -1.04777 0.725408 -2.78102 -1.89291 0.780312 -2.58996 -2.02787 
0.838846 -2.94767 -1.91734 0.565881 -3.47577 -1.20245 0.50014 -3.87935 -0.500498 
0.671065 -4.00337 -0.858957 0.723142 -2.14736 -2.16574 1.18507 -2.37351 -2.25794 
0.688594 -3.22032 -1.60865 0.593805 -3.06952 -1.56226 0.663355 -2.94766 -1.73701 
0.624428 -2.70362 -1.821 0.454615 -3.10533 -1.24288 0.520474 -3.10547 -1.39829 
0.554204 -3.27736 -1.33721 0.00546306 -2.56086 -0.174441 0.501006 -2.95808 -1.47031 
0.357417 -2.94407 -1.08578 -0.0349285 -2.16575 -0.227723 -0.172182 -1.4925 -0.0132209 
-0.0377924 -1.86538 -0.315542 0.167312 -2.44071 -0.747978 0.261932 -2.72458 -0.913925 
-0.528729 -1.08509 1.0385 0.130704 -2.12655 -0.739272 0.0621246 -2.04097 -0.559435 
-0.0518278 -1.50718 -0.344462 -0.158081 -0.945756 -0.131415 -0.0745695 -1.08136 -0.326481 
0.888144 -3.71847 -1.53185 0.783791 -3.45976 -1.58306 0.892209 -3.32587 -1.77758 
0.316197 -2.75573 -1.09919 -0.703012 -0.259837 1.45087 1.30596 -3.77813 -1.62641 
1.24858 -3.5655 -1.81189 -0.938593 1.34462 2.14554 -0.889305 0.921199 1.97428 
-0.849095 0.46546 1.92715 -0.820393 0.441733 1.76019 -0.978014 2.12101 2.17123 
-0.914354 1.37231 1.98055 -0.995462 2.15122 2.28286 -1.02288 2.77771 2.34122 
-0.983182 1.85282 2.30519 -0.959581 2.90239 2.00998 -0.998973 3.07099 2.18113 
-1.03215 3.31033 2.34997 -1.02462 3.71621 2.31102 -1.0026 3.9286 2.22466 
-0.968496 3.95559 2.09547 -0.973009 3.47517 2.07292 -0.933449 3.0284 1.9092 
-1.02774 4.26881 2.37359 -0.933964 4.23127 2.01996 -0.920102 3.81613 1.92097 
-1.05221 3.45588 2.48373 1.24925 0.456604 -2.47005 -0.891106 2.81473 1.76009 
-0.850064 2.73594 1.6266 -0.372104 0.288732 0.335842 -0.476795 0.920293 0.589831 
0.950008 -3.06315 -1.94802 -0.307112 0.313127 0.194894 -0.260779 -0.382455 0.0854441 
-0.552291 1.54724 0.789974 -0.227562 -0.939669 0.0444887 -0.872171 3.53397 1.74711 
-0.814686 3.32405 1.56576 -0.836665 3.08748 1.60415 -0.911101 3.36347 1.85045 
-0.646809 2.19604 1.05019 -0.736948 2.82569 1.31896 -0.768057 3.38609 1.45851 
0.662692 -3.44028 -1.41769 -0.554844 1.96097 0.824505 1.49807 0.70846 0.987751 
0.24055 -3.5269 -0.147536 -2.25236 2.25551 1.09485 1.11955 0.687531 0.863072 
1.27308 0.719696 0.939902 0.864563 0.960639 1.15642 1.52144 -1.38352 -1.41019 