# vtk DataFile Version 3.0
vtk output
ASCII
DATASET POLYDATA
POINTS 853 float
14.0321 1.22429 30.6795 13.8588 0.266711 30.5378 13.7602 -0.778528 30.3011 
13.7098 -1.91031 29.9114 13.6798 -3.18299 29.3592 13.7088 -4.50727 28.6631 
13.7737 -5.79996 27.831 13.892 -7.11496 26.8256 14.0887 -8.35519 25.7272 
14.3018 -9.44054 24.6509 14.5166 -10.4702 23.5481 14.6998 -11.4137 22.4893 
14.8204 -12.2812 21.4816 14.8184 -13.0787 20.5142 14.6915 -13.771 19.6422 
14.5189 -14.4058 18.7336 14.1932 -14.9596 17.7505 13.7043 -15.4453 16.6593 
13.0873 -15.8332 15.4145 12.3008 -16.0901 14.1282 11.4787 -16.1642 12.9576 
10.8368 -15.9845 11.9411 10.5339 -15.5245 11.1872 10.6259 -14.7815 10.7448 
11.0766 -13.7838 10.5871 11.6658 -12.6923 10.7932 12.318 -11.6352 11.3663 
13.0565 -10.6683 12.2231 13.6766 -9.85896 13.2576 13.8768 -9.26217 14.3747 
13.6561 -8.92101 15.5119 13.3093 -8.82544 16.5995 13.0548 -8.8146 17.5854 
12.851 -8.72428 18.5391 12.5999 -8.45072 19.5303 12.2662 -7.92096 20.5615 
11.8878 -7.14995 21.6146 11.5157 -6.09781 22.7089 11.2557 -4.85386 23.761 
11.1401 -3.4908 24.7365 11.2315 -2.02234 25.5904 11.521 -0.584125 26.2498 
11.8972 0.750943 26.7066 12.2498 1.90251 27.026 12.5536 2.91502 27.3365 
12.8459 3.86558 27.6072 13.1076 4.70272 27.8549 13.3744 5.37576 28.1243 
13.7383 5.89098 28.3811 14.2569 6.25689 28.6032 14.8636 6.45708 28.8123 
15.4752 6.47444 29.0432 15.9814 6.31808 29.2764 16.2363 6.01725 29.5035 
16.2151 5.58364 29.7505 15.9439 5.02201 30.0373 15.52 4.36478 30.3155 
15.0579 3.65547 30.5053 14.6155 2.89433 30.6596 14.2684 2.0883 30.7402 
14.0138 1.74253 30.3123 13.8749 1.12886 30.3464 13.7169 0.375078 30.0574 
13.6847 -0.253454 30.0285 13.5886 -1.20657 29.6675 13.5673 -2.03577 29.4366 
13.4788 -2.96519 28.8828 13.5337 -3.77189 28.5857 13.5376 -4.8696 27.8671 
13.6423 -5.80529 27.3008 13.6652 -6.67174 26.5149 13.8014 -7.48139 25.8491 
13.9884 -8.48625 24.8936 14.1852 -9.2445 24.2049 14.2785 -9.93004 23.3397 
14.4439 -10.5774 22.7459 14.5403 -11.312 21.8129 14.5622 -11.9031 21.0577 
14.5479 -12.4542 20.2637 14.4913 -12.913 19.8053 14.3258 -13.4382 19.0465 
14.0862 -13.7861 18.4709 13.7824 -14.1332 17.685 13.4778 -14.4651 17.0998 
12.9894 -14.8143 16.1581 12.5819 -14.9392 15.4428 12.1102 -15.2212 14.5267 
11.6356 -15.2891 13.6726 11.1236 -15.4013 12.7903 10.909 -15.1629 12.2671 
10.6742 -15.0841 11.7085 10.6773 -14.7184 11.3589 10.8941 -14.1428 11.1633 
11.1873 -13.5506 11.1345 11.4603 -12.9727 11.1571 11.8008 -12.3565 11.4153 
12.1579 -11.7185 12.0118 12.4501 -11.2179 12.5297 12.7122 -10.7313 13.279 
12.9817 -10.3063 14.0373 13.0932 -9.97134 14.9604 13.1134 -9.85671 15.6809 
13.0568 -9.74873 16.5369 13.0647 -9.64871 17.1365 13.0024 -9.47164 18.0632 
12.9634 -9.42198 18.6222 12.7972 -9.02115 19.6729 12.6119 -8.69839 20.3004 
12.3351 -8.01921 21.2982 12.0989 -7.53985 21.9475 11.7707 -6.46187 23.0549 
11.5678 -5.70509 23.6933 11.4036 -4.53175 24.6032 11.318 -3.70015 25.187 
11.3576 -2.28687 26.0065 11.5236 -1.40495 26.4315 11.7767 -0.158701 26.9355 
11.9999 0.697957 27.2084 12.1641 1.54193 27.39 12.4519 2.28133 27.5881 
12.7198 3.14401 27.767 12.9826 3.66433 27.975 13.179 4.32727 28.0865 
13.4831 4.82023 28.2249 13.7746 5.38835 28.3599 14.1226 5.69121 28.4971 
14.4574 5.99491 28.6343 14.7701 6.13815 28.7495 15.1688 6.26972 28.8915 
15.4392 6.20733 29.0228 15.7098 6.16494 29.1467 15.8852 6.00544 29.2931 
15.8916 5.70196 29.4694 15.8449 5.38694 29.6909 15.582 4.9772 29.79 
15.4315 4.60385 29.9946 15.0405 4.02943 30.1185 14.7686 3.53505 30.3217 
14.4348 2.95944 30.2658 14.2695 2.47106 30.4002 15.4953 5.84321 29.1558 
15.1918 5.99659 28.9568 15.4215 5.37893 29.425 14.708 5.69172 28.8204 
15.1016 5.65122 29.0689 15.009 4.63753 29.6413 14.1303 5.0649 28.6996 
14.7566 5.14265 29.1153 14.4687 3.69609 29.8156 13.5416 4.12799 28.5708 
13.5927 1.35724 29.7139 13.9694 2.60921 29.8473 12.5277 1.59991 28.0821 
13.0032 2.96789 28.3725 11.1986 -13.6597 11.707 11.8792 -4.28633 25.5887 
11.8531 -2.1544 26.7819 14.2549 4.33088 29.1591 12.2621 0.21361 27.7283 
10.9594 -14.3473 11.9362 11.5681 -12.8596 11.7733 13.104 -3.53997 27.8389 
13.2271 -1.75694 28.7943 13.3166 -0.126197 29.3126 13.9679 -9.92059 22.4713 
14.035 -12.0342 19.6657 11.812 -6.90786 22.3445 12.1933 -6.3659 24.0048 
12.828 -9.00304 19.0779 11.2041 -2.92579 25.4256 11.3043 -14.3572 12.9738 
11.9945 -12.1506 12.7627 13.2133 -5.38601 26.7065 13.7238 -8.62091 23.8724 
13.0867 -9.55248 20.3115 13.1724 -10.3046 18.5063 13.4087 -6.72418 25.7249 
11.5468 -3.09688 25.9298 12.6053 -8.15477 22.1613 14.0983 -10.9615 21.1393 
13.1862 -13.3239 17.1783 13.7289 3.33818 29.1495 12.1858 -7.23533 22.796 
13.069 -9.76323 19.3079 11.4565 -13.5305 12.4393 11.8622 -14.1001 14.1922 
12.3027 -11.6003 13.9851 13.7449 -12.7402 18.4856 13.0659 -10.7118 16.8897 
12.4944 -13.8109 15.7843 12.7425 -11.1076 15.461 12.2542 -3.26875 26.758 
13.2774 2.2613 29.0674 11.8276 -13.0876 13.5334 11.8459 -5.31477 24.6488 
12.4922 -5.40687 25.5447 13.0778 -10.3686 17.724 12.8273 -8.81878 21.2311 
12.9107 -7.6615 23.58 13.5309 -10.6319 19.8782 12.5762 -2.09748 27.714 
13.3493 -11.4962 18.2099 13.4622 -9.74522 21.3908 12.8192 -0.97141 28.422 
12.714 -0.0508978 28.4833 13.6079 -13.3228 17.9129 13.2795 -12.3523 17.6558 
14.0581 -12.6314 19.1875 13.6373 -11.8782 18.9734 12.1915 -14.3431 15.0182 
12.2178 -13.2978 14.9807 12.5435 -12.4409 15.8084 12.9207 -13.9248 16.561 
12.7497 -13.0393 16.4657 12.9402 -11.8898 16.6708 12.6355 -10.9042 14.6653 
12.3705 -11.9572 14.8726 12.9504 -10.6287 16.1605 13.2913 -8.87104 22.5269 
13.4013 -7.44227 24.7552 12.9029 -6.43341 25.0274 13.1663 -11.4271 17.4134 
12.6355 -4.38416 26.6094 13.9887 -11.3876 20.2283 13.6554 -10.4741 20.6412 
12.1996 -1.00234 27.5401 12.931 1.01295 28.8147 12.0895 -12.7553 14.3736 
13.4657 -11.0273 19.1832 14.1637 -14.348 18.1901 13.953 -14.0276 18.0543 
13.9597 -14.4757 17.7566 11.9463 -7.22679 22.1268 12.1393 -7.4462 22.3075 
11.954 -7.05894 22.5255 13.6607 -14.2992 17.4293 13.8216 -14.7489 17.3932 
13.5913 -14.9501 16.9308 13.9525 -15.2078 17.2239 14.3097 -14.1137 18.6056 
14.3864 -14.6966 18.2522 11.7774 -6.67762 22.6908 11.6289 -6.29784 22.8949 
11.6837 -6.59486 22.455 14.4263 -13.1953 19.4326 14.5229 -13.6336 19.3336 
14.6008 -13.3239 19.7622 14.7531 -13.4321 20.0778 14.6686 -13.0383 20.1299 
13.5023 -13.8141 17.4545 13.3253 -13.9441 17.1617 14.4285 -13.8975 18.9488 
14.2054 -13.6021 18.7621 14.0546 -13.1405 18.7854 13.9333 -13.2897 18.5203 
14.6169 -14.0962 19.1958 12.9851 -9.45367 18.3831 13.0674 -9.87921 18.268 
13.0605 -9.80429 18.581 13.6951 -13.7268 17.8109 13.4226 -13.3263 17.5766 
11.9006 -15.7254 13.8691 11.5717 -15.7591 13.3666 11.8842 -16.1543 13.524 
12.8996 -9.19868 18.8403 12.8227 -8.88226 18.8552 12.9031 -9.1097 18.5606 
11.21 -13.9664 12.2208 11.3073 -13.6137 12.0236 11.0992 -13.9511 11.8163 
11.2475 -15.7642 12.861 11.35 -15.3303 13.1873 11.8789 -15.2549 14.1059 
12.2027 -15.6696 14.3553 10.9905 -15.7112 12.4259 11.1187 -16.11 12.4336 
13.0625 -15.3246 15.862 13.4212 -15.6579 16.0567 13.3245 -15.1582 16.3845 
13.2476 -14.6692 16.6415 13.0417 -13.6596 16.8623 13.1587 -14.1746 16.8124 
12.5251 -15.5638 14.8999 12.7622 -15.3395 15.4155 12.3959 -15.1323 15.0309 
12.7766 -14.9025 15.7637 12.5039 -11.1874 14.3618 12.7483 -10.6208 14.3776 
12.6252 -10.875 14.0044 12.3511 -14.6462 15.2258 12.1295 -14.7568 14.7714 
12.7027 -15.9793 14.7604 11.9276 -6.44943 23.4258 11.8277 -6.03133 23.8123 
11.6817 -6.14716 23.3344 12.1746 -13.8803 14.9998 12.3267 -14.1003 15.3614 
12.3294 -13.5188 15.3858 14.0482 -12.341 19.4353 14.2691 -12.7698 19.4761 
14.2991 -12.5008 19.7625 13.1821 -7.51279 24.232 13.1337 -6.9641 24.8038 
12.8676 -7.00273 24.3107 14.7696 -11.8544 21.9822 14.649 -11.4045 22.1272 
14.6969 -11.7894 21.6738 14.2305 -9.57471 23.7839 14.0147 -8.94563 24.1271 
14.0448 -9.34198 23.5765 14.5755 -10.9672 22.6328 14.4776 -10.8811 22.3228 
14.7205 -12.4624 20.8507 14.8439 -12.6911 20.9912 14.7145 -12.1155 21.2803 
14.4984 -10.569 23.0848 14.6151 -10.9582 23.0043 12.7296 -8.49437 21.7258 
12.4522 -8.12365 21.6777 12.5654 -8.41448 21.2297 14.2535 -9.34747 24.4103 
14.345 -9.79049 23.9368 14.4101 -9.9527 24.1116 13.5714 0.228495 29.7608 
13.6545 0.772181 29.9004 13.4302 0.660277 29.5114 14.4042 -10.1622 23.4464 
14.1627 -8.93378 24.838 14.0856 -8.88023 24.524 14.1935 -8.91155 25.1874 
14.0646 -8.44978 25.3169 14.1327 -9.84878 23.025 14.2704 -10.3242 22.6172 
14.3587 -10.2664 23.0308 13.5645 -0.233534 29.7482 13.4724 -0.750467 29.4954 
13.6302 -0.664428 29.8545 12.917 -1.98413 28.229 13.0026 -1.28038 28.59 
12.7072 -1.48628 28.1056 13.8488 -8.4596 24.4591 13.704 -9.84302 21.9158 
13.7942 -10.34 21.3154 14.0346 -10.4896 21.7263 14.5687 -11.643 21.4109 
14.3183 -12.2604 19.9899 14.5467 -12.6935 20.0658 14.3473 -11.4479 21.0778 
14.3427 -11.1411 21.5091 14.2792 -10.6694 22.0767 14.6899 -12.7178 20.4157 
14.5626 -12.2228 20.6233 12.2033 -7.75493 21.6738 12.313 -7.82325 22.0237 
12.5053 -7.44325 23.1408 12.4146 -7.71516 22.5218 12.7603 -8.00349 22.798 
11.8137 -6.99372 22.0442 11.9904 -7.38655 21.7694 12.1194 -7.62931 21.3969 
12.4732 -8.366 20.7961 12.2806 -7.96929 20.925 12.4367 -8.32148 20.3964 
13.6285 -7.48008 25.3065 13.5958 -7.10406 25.7566 13.3792 -7.02589 25.2658 
12.82 -9.07486 20.2995 12.7262 -8.89853 19.9366 12.8975 -9.25009 19.9243 
13.833 -9.26352 23.163 13.0484 -8.88388 21.845 13.1365 -9.25267 21.3235 
13.3812 -9.32175 21.9463 13.9646 -7.89583 25.8413 13.8819 -7.97442 25.363 
14.0756 -11.2123 20.7034 14.3092 -11.6727 20.6819 11.5013 -5.87075 23.2289 
10.5985 -15.3108 11.4779 10.6603 -14.8804 11.5401 10.582 -15.0725 11.2503 
11.2392 -3.3155 25.2865 11.4164 -3.46283 25.5189 11.3221 -3.00734 25.6335 
10.7639 -14.4534 11.2698 10.7573 -14.42 10.9286 10.6373 -14.7745 11.0674 
10.532 -15.1875 10.9297 10.7041 -15.4969 11.7768 10.6396 -15.7894 11.5197 
11.2663 -2.58993 25.7094 11.273 -2.15881 25.8168 11.1878 -2.5858 25.4619 
10.7836 -14.5277 11.5946 10.9142 -14.2151 11.533 10.8448 -15.5298 12.1312 
[...]
POINT_DATA 853
VECTORS velocity double
0.437286 -3.75484 -0.38146 0.744229 -3.67979 -0.605037 0.974755 -3.43853 -0.612667 
1.15256 -3.12654 -0.423072 1.29564 -2.75606 -0.0707399 1.34862 -2.33749 0.309367 
1.24293 -1.8481 0.564564 0.936909 -1.26525 0.654072 0.510856 -0.695035 0.628002 
0.101377 -0.237278 0.669247 -0.272261 0.111196 0.905338 -0.55268 0.304703 1.24874 
-0.70149 0.338218 1.48727 -0.711399 0.242545 1.48973 -0.60337 0.0778914 1.28103 
-0.394548 -0.0702215 0.927468 -0.0840639 -0.0969164 0.558032 0.382223 0.0367742 0.295559 
1.04231 0.277489 0.252999 1.82449 0.372188 0.409241 2.44943 0.204648 0.591462 
2.67727 0.0215331 0.698579 2.48567 0.0933358 0.770514 1.91227 0.535008 0.884125 
0.854231 1.34148 1.02269 -0.543401 2.18169 1.08329 -2.00083 2.67059 0.977745 
-3.21746 2.66608 0.70649 -3.85396 2.42462 0.415064 -4.02991 2.43197 0.197325 
-3.96791 2.86582 0.00541018 -3.6778 3.47845 -0.185353 -3.27308 3.96027 -0.360027 
-2.83069 4.2575 -0.567082 -2.31184 4.36474 -0.901991 -1.65727 4.25067 -1.44154 
-0.862522 3.87476 -2.11212 -0.00298582 3.21785 -2.76297 0.698408 2.31629 -3.10785 
1.07276 1.25789 -3.08031 1.06391 0.123557 -2.8647 0.867049 -1.05993 -2.59069 
0.651392 -2.14968 -2.24712 0.437092 -2.89115 -1.85426 0.221175 -3.22547 -1.44306 
-0.0141659 -3.01599 -1.01424 -0.205699 -2.30623 -0.610159 -0.339729 -1.33114 -0.218665 
-0.469855 -0.172258 0.236163 -0.629531 1.18198 0.807306 -0.794262 2.53693 1.42354 
-0.940873 3.59656 1.99238 -1.0466 4.09215 2.39977 -1.11744 3.88414 2.58651 
-1.16878 3.00336 2.57872 -1.16259 1.48175 2.34315 -1.02404 -0.340949 1.85717 
-0.734761 -1.93472 1.21753 -0.336878 -3.03102 0.559562 0.0732571 -3.57559 0.0142542 
0.298194 -3.95992 -0.330693 0.53884 -3.96836 -0.55077 0.804177 -3.94695 -0.793399 
0.942088 -3.74375 -0.799045 1.13507 -3.44904 -0.774748 1.2418 -3.13637 -0.585559 
1.36138 -2.761 -0.427898 1.38903 -2.46442 -0.148627 1.3621 -1.96525 0.0617433 
1.21627 -1.5625 0.260793 0.975848 -1.03837 0.262839 0.686188 -0.627857 0.314775 
0.27098 -0.107901 0.365116 -0.0231348 0.166901 0.502694 -0.344218 0.532311 0.678957 
-0.536732 0.618613 0.940018 -0.778446 0.800369 1.23896 -0.896421 0.847704 1.40753 
-0.940627 0.835958 1.43202 -0.877656 0.682085 1.38735 -0.760907 0.549039 1.1909 
-0.624157 0.473377 0.998146 -0.401576 0.452345 0.756013 -0.123 0.412261 0.589835 
0.354033 0.487302 0.482775 0.728086 0.595546 0.537369 1.32844 0.614381 0.633691 
1.78632 0.592881 0.786851 2.22085 0.432396 0.864968 2.19172 0.472403 0.950879 
2.21407 0.422478 0.944694 1.91776 0.628316 0.998372 1.31964 1.06769 1.08889 
0.596167 1.55162 1.16249 -0.156634 1.97968 1.18622 -1.01323 2.34927 1.17858 
-1.90726 2.53316 1.13028 -2.55507 2.54605 1.01796 -3.07265 2.45077 0.867793 
-3.40926 2.41248 0.680045 -3.48639 2.53342 0.492641 -3.3727 2.74507 0.380677 
-3.16496 3.09452 0.242119 -3.02057 3.36161 0.136344 -2.74951 3.72111 -0.037203 
-2.52443 3.8097 -0.0999463 -2.11518 3.93278 -0.430323 -1.79459 3.90042 -0.720122 
-1.18656 3.67101 -1.29255 -0.720056 3.38637 -1.66447 0.0942945 2.72888 -2.28769 
0.551841 2.23959 -2.5755 1.05948 1.36406 -2.73647 1.25282 0.729421 -2.7183 
1.26213 -0.316043 -2.6111 1.1524 -1.02292 -2.51693 0.962514 -2.0312 -2.32961 
0.812459 -2.68353 -2.13705 0.637056 -3.1317 -1.90953 0.446928 -3.47388 -1.61099 
0.19463 -3.49207 -1.23481 0.00904799 -3.32876 -0.90318 -0.186067 -2.75173 -0.573367 
-0.3716 -2.0162 -0.187628 -0.51905 -0.922307 0.209026 -0.651452 0.0170167 0.610698 
-0.747717 1.0521 0.99305 -0.83099 1.82236 1.32047 -0.916896 2.73191 1.70729 
-0.991834 3.07259 1.9638 -1.04517 3.42443 2.19179 -1.09719 3.39309 2.34339 
-1.14415 2.81389 2.3728 -1.16634 2.10206 2.34576 -1.12932 0.887381 2.0857 
-1.0627 -0.0475929 1.87962 -0.852444 -1.5223 1.36269 -0.620642 -2.43947 0.951951 
-0.302626 -3.28396 0.422469 -0.0599833 -3.62275 0.114336 -1.06907 2.48684 2.03561 
-0.978038 2.27803 1.7467 -1.10894 1.45267 2.00636 -0.880725 0.909735 1.26601 
-1.0099 1.47659 1.69007 -0.976651 -0.599888 1.52757 -0.679777 -1.04058 0.596257 
-0.932217 -0.0421617 1.3229 -0.576328 -2.66695 0.728756 -0.297485 -2.90388 -0.204504 
0.589602 -4.27423 -0.799766 0.00695981 -3.92133 -0.126167 0.708751 -3.82503 -1.64417 
0.215978 -3.89656 -0.995009 0.716059 1.46597 1.24838 1.33871 0.140063 -2.10666 
1.39333 -1.3452 -2.1788 -0.653348 -2.07847 0.648883 1.03107 -3.12173 -1.99359 
1.51346 0.954713 1.15266 -0.353304 2.01967 1.29317 1.47174 -2.17428 -0.764065 
1.32017 -3.171 -1.04401 1.05156 -3.92868 -1.16646 -0.673359 1.26859 0.592838 
-1.20919 1.50336 1.28028 -0.366149 3.30585 -2.17433 0.490008 1.62942 -1.7676 
-2.44583 4.07651 -0.422771 1.22831 0.44664 -2.81069 1.31196 0.991183 1.16719 
-1.38014 2.205 1.31263 1.26599 -1.15469 -0.411947 -0.071835 0.740283 0.0751216 
-1.68023 3.24372 0.0457404 -2.18949 3.1857 0.440104 0.827341 -0.404291 -0.201763 
1.38596 -0.197378 -2.42893 -0.721517 2.80208 -0.957739 -1.0751 1.54528 1.08056 
-0.716908 1.1331 0.85103 -0.157625 -3.64547 -0.167516 -0.224148 2.66987 -1.6534 
-2.09216 3.48478 0.137838 0.435837 1.53849 1.32754 0.651051 1.08176 1.06601 
-2.01693 2.11528 1.17509 -1.07756 1.31824 1.10625 -2.42433 2.7117 0.615435 
-0.0806049 1.03224 0.819871 -2.38888 2.25235 0.867436 1.50251 -1.24649 -1.73241 
0.390008 -4.29935 -0.878196 -0.272649 1.62903 1.34658 0.963811 1.15631 -2.18006 
1.1434 0.0202294 -1.35003 -2.39987 3.09151 0.449896 -1.26892 3.1767 -0.503246 
-0.00820118 1.54236 -0.813089 -1.60231 2.58722 0.762516 1.43713 -2.41191 -1.58596 
-1.69028 2.33688 0.897108 -1.14867 2.33236 0.335825 1.28334 -3.30717 -1.52253 
1.13655 -3.67307 -1.63674 -0.79983 0.994392 0.949153 -1.29165 1.75508 0.959646 
-1.06607 1.1837 1.25916 -1.39297 1.91062 1.10894 0.56096 0.895259 0.819103 
-0.31056 1.34688 1.083 -1.16558 1.68907 1.01134 -0.235816 0.862258 0.711676 
-0.770114 1.37308 0.891061 -1.62409 2.0273 0.900427 -2.68764 2.26466 0.897888 
-1.60056 1.90281 1.13488 -2.65279 2.5789 0.638317 -0.633232 1.94091 -0.1627 
0.419977 0.348459 -0.309034 0.750866 0.362987 -0.912628 -1.85755 2.37125 0.82092 
1.44226 -1.05822 -1.18807 -1.27295 1.77009 1.17688 -1.35887 2.29195 0.761036 
1.27035 -2.51818 -2.01082 0.86646 -4.18007 -1.40586 -0.746125 1.63796 1.25555 
-1.68296 2.53619 0.862282 -0.376297 0.14618 0.809413 -0.493953 0.418537 0.852994 
-0.26694 0.19831 0.685102 -0.555718 3.37541 -1.93079 -0.508576 3.08166 -1.64504 
-0.307453 3.05151 -1.95607 -0.27911 0.417517 0.673445 -0.0818138 0.146959 0.551094 
0.125734 0.186926 0.444222 0.125889 -0.0486306 0.406429 -0.498271 0.178401 0.964547 
-0.253255 -0.105388 0.735531 -0.13334 3.04256 -2.25864 0.0567522 2.96309 -2.5158 
-0.240273 3.3178 -2.42759 -0.823826 0.603385 1.3022 -0.671605 0.291574 1.23188 
-0.743773 0.37208 1.36109 -0.671347 0.16531 1.41031 -0.786618 0.440405 1.43932 
-0.509968 0.740782 0.789923 -0.383883 0.725962 0.726115 -0.586873 0.223596 1.0943 
-0.704403 0.519785 1.10044 -0.893362 0.890498 1.15951 -0.835489 0.856673 1.08316 
-0.51084 -0.00496597 1.11499 -2.61945 3.7752 -0.0672004 -2.47315 3.47788 0.196549 
-2.38425 3.54113 0.150387 -0.601647 0.712152 0.865401 -0.768873 1.06314 0.89381 
1.88536 0.46067 0.593615 2.15438 0.397171 0.67431 2.17507 0.311688 0.506932 
-2.50477 3.96009 -0.264607 -2.60431 4.17244 -0.494697 -2.67673 4.01731 -0.307517 
1.02623 1.2452 1.25139 0.611982 1.50028 1.2895 1.06687 1.248 1.21908 
2.37157 0.30501 0.737923 2.02836 0.526199 0.848528 1.55712 0.618546 0.713475 
1.60011 0.482138 0.510424 2.48332 0.233643 0.782052 2.61982 0.0943128 0.654714 
0.682584 0.343486 0.353252 0.687341 0.15332 0.24174 0.39846 0.259961 0.370375 
0.108565 0.428594 0.509367 -0.462752 0.967822 0.771782 -0.176795 0.665221 0.647821 
1.26036 0.465611 0.430497 0.907086 0.448861 0.408976 1.02362 0.592265 0.553133 
0.561114 0.543745 0.49787 -2.44115 2.19418 1.02215 -3.02527 2.34194 0.810573 
-2.82916 2.31084 0.93094 0.672919 0.746851 0.677305 0.945385 0.760453 0.739705 
1.43579 0.3609 0.317362 0.25576 2.30424 -2.08524 0.519572 1.99563 -2.21937 
0.298556 2.52446 -2.42135 0.20445 1.09156 0.954839 0.260289 0.954261 0.81903 
-0.199616 1.20881 0.96031 -1.1418 1.33972 1.28668 -0.976447 0.946 1.32444 
-1.02766 1.04992 1.3651 0.247338 0.873855 -0.562917 0.548986 0.45055 -0.638598 
0.400915 0.99543 -0.948049 -0.644544 0.340288 1.39251 -0.664715 0.535003 1.26121 
-0.742469 0.561367 1.38402 -0.181714 0.356692 0.570547 -0.0222344 0.357687 0.342327 
-0.242345 0.645413 0.420128 -0.548063 0.470186 1.09395 -0.660565 0.737046 1.06847 
-0.811621 0.538742 1.4922 -0.72242 0.302076 1.51934 -0.787957 0.562454 1.45756 
-0.421218 0.381406 0.937135 -0.429081 0.230193 1.07901 -0.990065 2.98507 -0.726941 
-0.974448 3.282 -1.11869 -1.2574 3.46757 -0.903474 0.0346291 -0.0301059 0.587481 
-0.139284 0.142369 0.681137 -0.0888974 -0.0506572 0.759792 0.896462 -4.00234 -0.941868 
0.733757 -4.11695 -0.82848 0.84219 -4.18698 -1.04757 -0.307739 0.331144 0.786138 
0.200104 -0.205926 0.534847 0.11139 0.0551405 0.422642 0.301646 -0.451841 0.629018 
0.392555 -0.424674 0.506604 -0.458669 0.836952 0.608823 -0.598176 0.87529 0.823694 
-0.449932 0.587806 0.811551 0.99124 -3.83615 -0.931139 1.11382 -3.66456 -0.975808 
1.03747 -3.63518 -0.819219 1.39965 -2.83532 -1.29663 1.304 -3.28207 -1.33511 
1.36107 -2.91337 -1.56069 0.144578 0.268979 0.190591 -0.909094 1.81229 0.47774 
-1.11239 1.91961 0.747194 -0.927971 1.47765 0.869731 -0.847975 0.825106 1.34632 
-1.06308 1.14217 1.37379 -0.90553 0.739505 1.4236 -0.994358 1.19254 1.2775 
-0.910543 1.13787 1.17579 -0.772292 1.06628 0.976669 -0.831716 0.555375 1.47031 
-0.928196 0.841103 1.44245 -0.921214 3.51387 -1.50294 -0.733963 3.14946 -1.34678 
-0.127188 2.16762 -1.26526 -0.46318 2.70368 -1.28152 -0.396549 2.22763 -0.871626 
-0.557235 3.56018 -2.1808 -0.798202 3.62939 -1.8598 -1.07718 3.81876 -1.67339 
-1.51002 3.82477 -1.00662 -1.41659 3.98501 -1.38351 -1.75967 4.10223 -1.06878 
0.560645 -0.179842 0.0233022 0.74729 -0.491875 0.055269 0.652761 -0.0359399 -0.292847 
-1.75764 3.62303 -0.371699 -1.98696 3.92617 -0.53967 -1.93194 3.66896 -0.234261 
-0.392248 1.06419 0.288973 -0.955147 2.59196 -0.320023 -1.21349 2.77101 -0.0836292 
-0.913552 2.17438 0.0849981 0.60784 -0.690655 0.501707 0.479113 -0.344481 0.318453 
-1.17088 1.63261 1.15954 -1.06196 1.26027 1.32474 0.311638 2.72638 -2.71266 
2.37397 0.255322 0.859898 2.06104 0.530808 0.981566 2.20169 0.373595 0.895104 
1.24637 0.621147 -2.78888 1.32739 0.322123 -2.57878 1.3032 0.191257 -2.65859 
1.65957 0.822936 1.04565 1.60102 0.828441 0.993778 1.94743 0.564823 0.940683 
2.25073 0.265289 0.820404 2.47351 0.206916 0.83299 2.62782 0.0156401 0.732557 
1.24645 0.0801901 -2.71884 1.1757 -0.104613 -2.73589 1.1674 0.370402 -2.86036 
1.73578 0.78905 1.07529 1.40027 1.02967 1.13436 2.44994 0.257618 0.838408 
2.23287 0.42989 0.944038 1.17072 1.14598 1.04658 1.45186 0.899789 0.956838 
0.641917 1.52239 1.21014 0.94757 1.3235 1.12557 1.03581 1.27458 1.17559 
1.93539 0.651076 1.04338 2.22384 0.444425 0.914965 0.722759 1.4603 1.10193 
0.244437 1.76132 1.17829 0.273051 1.74132 1.12195 0.171866 1.78945 1.06794 
-0.294064 2.0561 1.1404 -1.45424 2.51393 1.10249 -1.27896 2.48565 1.05509 
-0.859747 2.31427 1.13372 -0.569322 2.17322 1.19542 0.292162 1.70131 1.28352 
0.194441 1.77928 1.23633 -0.0249424 -3.76828 0.0141819 0.187971 -4.01436 -0.271169 
0.105046 -3.82148 -0.103904 1.42912 0.985424 1.18017 1.8885 0.694214 1.06338 
1.84417 0.710882 1.05956 -0.249208 2.01072 1.23473 -0.786662 2.2349 1.23687 
-2.66525 2.72571 0.855559 -2.05245 2.63029 1.03844 -2.57888 2.65977 0.944413 
-2.31099 2.55624 1.06793 -2.86971 2.61134 0.89404 -2.77822 2.51025 0.965897 
-3.27907 2.55905 0.755795 -0.425684 -2.96541 0.243484 -0.481032 -2.55099 0.231996 
-0.234697 -3.32933 -0.182421 -3.6135 2.54185 0.552778 -3.55964 2.48498 0.633478 
-1.4186 2.45641 1.17096 -1.61791 2.38602 1.23419 -1.16939 2.32366 1.25387 
-0.809854 2.12918 1.33081 0.314558 -4.2125 -0.515167 0.404866 -4.13355 -0.515724 
-0.00321849 1.80233 1.33632 0.915898 -2.85535 -2.09779 0.896796 -3.50848 -1.85704 
0.805019 -3.23273 -1.9496 -2.83497 3.99144 -0.287411 -2.60764 3.42731 0.206142 
-2.28748 3.14575 0.44935 -3.06067 4.13876 -0.461909 -3.00983 3.86427 -0.207468 
-3.18847 3.6567 -0.104771 -2.89866 3.57043 0.0388873 -2.42541 4.22159 -0.624325 
-2.28512 4.02758 -0.437936 -2.20693 4.1385 -0.648261 -3.11899 3.22359 0.18593 
-2.82775 2.93696 0.421503 -2.75176 3.05046 0.384122 -2.03335 4.15233 -0.824225 
-1.99558 4.33636 -1.15077 -1.28396 4.10104 -1.76454 -1.09528 2.02908 2.03518 
-1.13555 2.22255 2.21552 -1.11488 2.59066 2.20712 -0.913087 2.04579 1.54376 
-0.944641 2.54361 1.72419 -0.880712 2.3281 1.53536 -0.764258 0.337632 0.905794 
-0.801705 0.995898 1.0953 -0.713759 0.646831 0.846179 -0.432587 3.58655 -2.45513 
-2.58885 4.33409 -0.707324 -1.32853 2.03859 0.995387 -1.47984 2.43987 0.775448 
-1.45927 2.23222 0.970049 -0.781541 1.36711 1.12563 -0.867161 1.49333 1.33138 
-3.84305 2.53042 0.330082 -3.81849 2.44499 0.429538 -3.49898 2.4505 0.57273 
-2.60235 2.31479 1.03668 -2.32492 2.3628 1.12682 -1.73134 2.15016 1.26708 
-0.678621 -1.59824 0.628215 -0.823495 -1.06204 1.01726 -0.820096 -0.572122 0.984216 
-3.72561 2.44036 0.529126 -3.97969 2.37611 0.298672 -4.02581 2.60304 0.102989 
-3.80407 2.67727 0.247361 -3.2732 2.41834 0.772318 -3.41663 3.25442 0.0663261 
-3.35018 3.46426 -0.0351471 -3.47833 3.73518 -0.266375 -3.29794 2.95127 0.281458 
-3.60098 3.06435 0.105692 -3.85164 3.17551 -0.0945861 -3.72211 2.84466 0.182623 
-1.04532 1.95153 1.86638 -1.05529 1.4351 1.81962 -3.42802 2.62199 0.443839 
-0.988771 0.849633 1.55019 -0.96015 1.2143 1.5145 -0.909024 0.393522 1.28017 
-1.97173 2.15347 0.894037 -2.20469 2.35758 0.791672 -2.52731 2.40713 0.750996 
-0.273886 -2.45549 -0.392626 -0.229275 -2.81836 -0.430817 -0.371426 -2.36249 -0.141937 
-0.997831 1.87218 1.72026 -0.942024 1.6791 1.54181 -2.56806 2.25565 0.884275 
-2.99941 2.43194 0.687835 -3.08037 2.39047 0.720444 -2.11645 3.75339 -0.183675 
-1.89764 3.38998 0.107408 -0.0985429 -3.25807 -0.636848 -0.0996388 -3.06386 -0.72642 
0.388641 2.7849 -2.99119 0.616656 2.33434 -2.86572 -2.33707 3.68565 0.00341229 
-2.30875 3.85386 -0.200191 0.96037 -1.15606 0.45246 0.84381 -0.860759 0.316011 
0.802678 -0.953315 0.503779 0.724051 -0.964983 0.645442 1.22135 -0.587403 -0.896146 
0.968052 0.165913 -1.12421 1.04387 -0.381699 -0.695787 1.10615 -1.44271 0.468814 
1.11062 -1.30653 0.264298 1.2284 -1.70513 0.415856 1.11733 -1.57105 0.629929 
1.16203 0.681952 -2.13811 1.19984 0.830991 -2.46174 1.01848 1.27642 -2.46816 
1.35877 -2.16773 0.217574 1.30875 -1.93058 0.334447 1.31933 -2.10338 0.455971 
1.41251 -2.59828 -0.568442 1.42217 -2.3733 -0.360872 1.38186 -2.60579 -0.287645 
1.3378 -2.55122 0.132143 1.35262 -2.61113 -0.0821058 1.3704 -2.40925 0.0706381 
1.39629 -2.24277 -0.0675881 1.2965 -1.7375 0.162079 1.27339 -3.18328 -0.76795 
1.35561 -2.91361 -0.716388 1.3051 -2.96528 -0.515881 1.42458 -1.67442 -0.553974 
1.35397 -1.69176 -0.162897 1.42111 -2.03498 -0.301434 1.17346 1.00441 -2.89482 
1.07392 1.38895 -2.94616 1.19003 0.991185 -2.72871 0.774064 1.69718 -2.38793 
0.832058 1.83014 -2.70065 -1.02335 2.37648 1.88404 0.891884 1.85228 -2.94394 
0.929597 1.8083 -3.13118 1.17029 0.781809 -2.93014 1.32677 -0.760391 -2.43217 
1.33213 -0.279478 -2.53416 1.40992 -0.775176 -2.28681 1.32842 -2.77556 -0.258647 
1.28797 -1.22107 -2.36043 1.21908 -0.608081 -2.57611 1.46632 -1.32269 -1.9831 
1.45744 -0.692506 -2.11814 1.21501 -3.40948 -0.914272 1.20833 -3.56169 -1.1531 
1.10897 0.708683 -2.98646 1.26497 -2.96029 -0.364766 1.42048 -2.69712 -0.942204 
1.24721 -1.45814 0.0119539 1.09978 -0.456168 -2.68942 1.19902 -3.13797 -0.496881 
1.22829 -2.95098 -0.264857 1.10726 -1.09594 -0.00337601 1.05703 -3.44895 -0.677839 
1.13626 -3.29007 -0.59941 1.06896 -3.28987 -0.541668 1.87677 0.659854 0.997093 
0.881406 -3.85099 -0.810533 0.955964 -3.6005 -0.712379 0.856642 -3.71753 -0.706907 
0.867948 -3.56808 -0.633155 1.19939 -3.28369 -0.693788 0.632824 -3.84949 -0.585967 
0.672101 -3.98079 -0.681729 0.770424 -3.82947 -0.695374 0.490653 -3.86463 -0.465759 
0.357941 -3.85321 -0.341092 0.437211 -3.99406 -0.469257 0.597464 -3.74599 -0.517298 
1.06359 -1.55178 -2.42711 1.22343 -1.73328 -2.28933 1.12747 -2.21306 -2.23032 
0.262332 -3.70273 -0.203621 0.194739 -3.7793 -0.165126 1.29833 -3.01924 -1.73274 
1.3732 -2.47463 -1.82129 1.21045 -3.20869 -1.81503 1.1058 -3.45547 -1.81399 
1.14735 -2.83772 -2.03171 0.555017 -4.11036 -0.637775 0.000644775 -3.60722 0.0713434 
-0.127066 -3.35796 0.269252 -0.177573 -3.38238 0.304515 -0.196672 -3.54848 0.220319 
-0.176844 -3.48532 0.256816 -0.323621 -3.16125 0.497912 -0.470113 -2.88889 0.690535 
-0.503309 -2.72872 0.78665 -0.286317 -3.44054 0.263797 -0.416565 -3.09442 0.544189 
-0.808421 -1.68773 1.32408 -0.730606 -2.06299 1.134 -0.672042 -2.22031 1.07305 
-0.545877 -2.55268 0.883448 -1.04948 -0.169441 1.88215 -0.979181 -0.755108 1.64735 
-0.93894 -0.999399 1.59983 -0.896938 -1.18733 1.54833 -1.11216 0.559251 2.12636 
-1.1184 0.608221 2.09978 -0.801287 -1.73378 1.12669 -0.756757 -1.98702 1.11794 
-0.909978 -1.19452 1.42759 1.49153 -1.84899 -1.6269 1.51096 -1.76621 -1.27925 
1.47601 -2.3192 -1.24601 -0.614107 -2.51537 0.887221 -0.0513581 -3.55174 -0.591753 
0.0356928 -3.86283 -0.579464 -0.626765 -2.40426 0.701951 -0.826922 -1.40515 1.09402 
1.34768 -1.90038 -2.09494 0.850648 1.2814 1.27957 -1.0813 0.303683 1.87444 
-1.02805 -0.329386 1.73197 -1.10259 0.429631 1.9933 0.967398 -0.475058 -2.73351 
1.00826 -0.966358 -2.59166 0.908189 -1.5295 -2.46413 -1.03391 0.662398 1.67714 
0.812286 -2.01261 -2.3317 0.76576 -1.62633 -2.43163 0.746621 -2.42311 -2.19827 
0.873134 -2.36523 -2.2408 -0.806848 -0.0398262 0.970801 -0.686708 -0.393785 0.641602 
0.641934 -2.70957 -2.06306 0.725163 -2.9359 -2.02567 0.201457 -4.18952 -0.50252 
0.482875 -4.34828 -0.833466 0.447132 -3.19479 -1.73883 0.546438 -3.00133 -1.89945 
0.561552 -3.33862 -1.77535 0.0759484 -3.57813 -0.915946 -0.0866309 -3.82837 -0.131006 
0.11714 -4.07717 -0.54 0.538363 -2.5631 -2.05268 1.01792 -2.53706 -2.18345 
0.310046 -3.54674 -1.40112 0.213119 -3.37314 -1.34387 0.334475 -3.32952 -1.55226 
0.331787 -3.11832 -1.65015 0.0027305 -3.18746 -0.965102 0.0999399 -3.30223 -1.14915 
0.106707 -3.44494 -1.076 -0.519304 -2.0562 0.225222 0.107938 -3.20057 -1.23451 
-0.103912 -2.89433 -0.785439 -0.508801 -1.67915 0.153717 -0.58686 -0.992497 0.358881 
-0.465876 -1.43083 0.0461314 -0.279677 -2.16239 -0.415115 -0.197799 -2.54576 -0.595054 
-0.961423 -0.337961 1.4265 -0.276101 -1.84702 -0.417894 -0.358059 -1.68931 -0.21818 
-0.431015 -1.12869 -0.00249447 -0.495491 -0.586657 0.207043 -0.402525 -0.771976 -0.00332785 
0.477457 -4.01227 -1.3285 0.388105 -3.77326 -1.37609 0.561325 -3.68192 -1.61531 
-0.122825 -2.6956 -0.803682 -1.06629 0.456225 1.79221 1.03147 -3.93046 -1.55443 
0.975688 -3.76483 -1.72069 -1.17182 1.89348 2.37119 -1.15613 1.52356 2.23323 
-1.14922 1.16435 2.21248 -1.12596 1.09554 2.05523 -1.15942 2.45923 2.36765 
-1.14903 1.85469 2.22033 -1.17264 2.52184 2.46408 -1.15983 2.98855 2.4992 
-1.17754 2.32372 2.49348 -1.09219 2.96905 2.21506 -1.12066 3.14319 2.35982 
-1.13777 3.37105 2.49915 -1.10913 3.64897 2.46492 -1.07817 3.7743 2.39397 
-1.04497 3.75154 2.2862 -1.07308 3.39855 2.26606 -1.05889 3.02703 2.12685 
-1.08434 4.0747 2.51797 -1.00026 3.9269 2.22431 -1.00525 3.5911 2.13617 
-1.14663 3.52475 2.60758 1.29956 0.515144 -2.49314 -1.02891 2.82443 1.99669 
-0.991325 2.72414 1.87755 -0.63021 0.526165 0.662535 -0.700187 1.07424 0.906786 
0.680273 -3.42026 -1.82058 -0.545788 0.477249 0.506623 -0.560723 -0.0665769 0.420058 
-0.739835 1.58884 1.0939 -0.58489 -0.512106 0.3992 -0.971037 3.33005 1.98271 
-0.922335 3.11928 1.81937 -0.957397 2.96606 1.85541 -1.01863 3.24359 2.07406 
-0.803865 2.14067 1.34069 -0.866033 2.67983 1.59216 -0.87062 3.12186 1.71897 
0.223274 -3.67327 -1.17384 -0.713629 1.88514 1.1179 1.57203 0.779866 0.995801 
-0.370983 -3.23441 0.279141 -2.14851 2.44233 1.14865 1.12092 0.802727 0.840726 
1.3111 0.818016 0.929622 0.961766 1.06491 1.13914 1.49281 -1.17098 -1.43802 
1.47987 -1.56571 -0.974153 1.04837 0.65403 -1.81173 1.26605 0.0392074 -1.70477 