# vtk DataFile Version 3.0
vtk output
ASCII
DATASET POLYDATA
POINTS 853 float
14.315 -0.0767783 30.498 14.2206 -1.03212 30.3137 14.1786 -2.02868 30.1027 
14.1702 -3.07718 29.7986 14.1684 -4.22823 29.3824 14.196 -5.40265 28.8248 
14.2152 -6.52269 28.0778 14.2308 -7.63524 27.0958 14.2876 -8.67578 25.9911 
14.364 -9.60091 24.9395 14.4537 -10.5114 23.9204 14.5422 -11.3899 22.9705 
14.6109 -12.2459 22.0336 14.6056 -13.0762 21.0539 14.5208 -13.826 20.0895 
14.4317 -14.508 19.0359 14.2296 -15.0579 17.9175 13.9184 -15.4799 16.7485 
13.5379 -15.7733 15.5063 13.0159 -15.988 14.2743 12.3994 -16.1077 13.1533 
11.8271 -15.9869 12.1611 11.4378 -15.5014 11.4271 11.2835 -14.5956 11.0282 
11.2929 -13.3008 10.9259 11.3463 -11.9175 11.1471 11.5017 -10.7127 11.667 
11.857 -9.75346 12.4273 12.2794 -9.01194 13.3701 12.4298 -8.3986 14.4091 
12.2389 -7.89846 15.4572 12.0013 -7.59178 16.4495 11.8999 -7.42038 17.354 
11.8645 -7.22903 18.2243 11.8005 -6.90874 19.0985 11.6824 -6.39204 19.956 
11.5547 -5.71784 20.8038 11.4582 -4.86847 21.6985 11.4388 -3.9372 22.6362 
11.4741 -2.96331 23.6066 11.6006 -1.91016 24.5236 11.8577 -0.876303 25.2777 
12.188 0.112384 25.85 12.4978 1.02179 26.2941 12.7627 1.88359 26.7315 
13.0011 2.8159 27.1339 13.2 3.79393 27.5105 13.4002 4.75194 27.9144 
13.6846 5.69787 28.3359 14.1088 6.64091 28.77 14.6259 7.44648 29.2136 
15.1655 7.91617 29.6713 15.6245 7.93181 30.0811 15.8596 7.4744 30.3967 
15.8477 6.56092 30.6315 15.631 5.26995 30.7831 15.3125 3.92735 30.8341 
14.9844 2.76629 30.7825 14.6799 1.75562 30.7295 14.4525 0.835734 30.6589 
14.2792 0.36464 30.117 14.1993 -0.250615 30.1042 14.1139 -1.01897 29.7547 
14.1109 -1.59819 29.7448 14.0625 -2.48033 29.4101 14.0613 -3.21569 29.2579 
13.998 -4.02376 28.7613 14.047 -4.72324 28.5694 14.027 -5.64365 27.924 
14.0766 -6.43513 27.4284 14.02 -7.11982 26.643 14.0618 -7.78461 26.0008 
14.113 -8.60555 25.0756 14.2119 -9.26608 24.4416 14.2004 -9.82512 23.6397 
14.3 -10.4425 23.1306 14.315 -11.1129 22.2913 14.2946 -11.6844 21.5878 
14.2632 -12.2352 20.7958 14.2268 -12.7473 20.3138 14.1052 -13.3184 19.4725 
13.9181 -13.6913 18.8204 13.7002 -14.0418 17.9465 13.4982 -14.3819 17.3051 
13.1782 -14.6956 16.3377 12.8933 -14.7769 15.6492 12.6213 -15.042 14.7644 
12.2916 -15.1055 13.9562 11.9248 -15.2602 13.0885 11.6846 -15.0028 12.5917 
11.452 -14.9374 12.0242 11.3265 -14.4951 11.694 11.2921 -13.7592 11.5347 
11.2946 -12.9949 11.5348 11.2803 -12.2695 11.562 11.3176 -11.5375 11.811 
11.386 -10.8559 12.3896 11.4802 -10.36 12.8693 11.5944 -9.90938 13.5733 
11.7693 -9.49462 14.2685 11.8689 -9.11638 15.1207 11.9382 -8.93257 15.7947 
11.9623 -8.70868 16.5878 12.0279 -8.5176 17.1384 12.0727 -8.21595 17.9871 
12.1245 -8.13991 18.5238 12.1086 -7.68752 19.4556 12.03 -7.36518 19.9875 
11.9478 -6.74234 20.8055 11.8585 -6.34981 21.3438 11.792 -5.48402 22.2531 
11.7391 -4.89224 22.7892 11.7554 -4.03408 23.625 11.7489 -3.43543 24.1969 
11.8226 -2.39768 25.0324 11.9711 -1.7566 25.486 12.1809 -0.828801 26.0545 
12.3679 -0.167515 26.3907 12.4873 0.548064 26.6448 12.7362 1.16469 26.9335 
12.9453 1.97765 27.2264 13.1648 2.48866 27.5352 13.2968 3.26914 27.7519 
13.5312 3.94178 28.0163 13.742 4.86343 28.2929 14.0169 5.51433 28.5769 
14.2835 6.26363 28.8624 14.5444 6.75119 29.1056 14.8885 7.29847 29.4025 
15.1257 7.36896 29.6397 15.3692 7.46717 29.861 15.5284 7.25652 30.0745 
15.5379 6.6302 30.259 15.5091 5.94399 30.456 15.3036 4.9866 30.4212 
15.2072 4.25527 30.5258 14.9302 3.21996 30.4402 14.7491 2.5005 30.5035 
14.5291 1.72409 30.2762 14.4324 1.17414 30.3275 15.176 6.66631 29.7997 
14.9073 6.7677 29.4816 15.1282 5.66943 30.0419 14.5035 5.83519 29.1462 
14.8371 6.00883 29.5635 14.8364 4.09916 30.0346 14.0632 4.44019 28.7611 
14.5774 4.83648 29.447 14.4829 2.56792 29.9101 13.6458 2.97013 28.3517 
13.9557 -0.129087 29.3648 14.1749 1.20283 29.6785 12.9096 0.320815 27.4257 
13.264 1.62224 27.9078 11.3577 -13.1428 12.15 12.3703 -4.31267 24.8385 
12.4013 -2.69901 25.964 14.2368 3.34629 29.225 12.7252 -0.872104 26.966 
11.4409 -14.0116 12.3417 11.3276 -12.1581 12.2303 13.6568 -4.40953 27.5744 
13.763 -2.95869 28.4271 13.7948 -1.53986 28.8801 13.7933 -9.56299 22.7407 
13.6688 -11.5734 20.151 11.6652 -5.7058 21.5555 12.3898 -5.85686 23.4257 
12.0062 -7.60502 18.8429 11.6273 -2.73601 24.3867 11.7315 -14.0263 13.3999 
11.4327 -11.418 13.2397 13.6734 -5.8902 26.5824 13.7454 -8.45024 23.9667 
12.5851 -8.49993 20.3217 12.4779 -9.27086 18.6527 13.722 -6.9606 25.6926 
12.0578 -3.20944 25.0331 12.4089 -7.23684 21.8536 13.7885 -10.5014 21.5619 
12.9833 -12.9882 17.5084 13.8958 1.97484 28.9444 12.1325 -6.3319 22.24 
12.4124 -8.62028 19.3289 11.5308 -13.0084 12.9253 12.085 -13.7617 14.5992 
11.5763 -10.9164 14.4279 13.419 -12.3391 18.9047 12.2663 -9.83896 17.1196 
12.4981 -13.5038 16.1107 11.9326 -10.3864 15.7969 12.829 -3.81638 26.1192 
13.6009 0.770379 28.6552 11.686 -12.5613 14.0452 12.1935 -4.95802 23.8998 
12.9197 -5.50419 25.0936 12.294 -9.36368 17.8751 12.4564 -7.7773 21.0585 
12.9594 -7.21209 23.36 13.0571 -9.81036 20.1688 13.1537 -3.04975 27.1236 
12.8248 -10.751 18.5586 13.1454 -9.02035 21.5494 13.3638 -2.20592 27.8574 
13.2244 -1.37246 27.8637 13.3785 -13.0371 18.2669 12.8808 -11.802 18.0347 
13.7346 -12.2803 19.659 13.2124 -11.2731 19.3992 12.413 -14.0756 15.3372 
12.116 -12.8816 15.4089 12.1634 -11.915 16.2168 12.8862 -13.6806 16.8369 
12.5177 -12.6195 16.8249 12.4197 -11.2532 17.0338 11.6985 -10.1668 15.0006 
11.8181 -11.3553 15.318 12.0559 -9.79402 16.3979 13.1402 -8.28317 22.5315 
13.5857 -7.41561 24.7027 13.1995 -6.40859 24.7521 12.5764 -10.674 17.7368 
13.1708 -4.86921 26.19 13.6111 -10.8416 20.6788 13.2649 -9.75815 20.9418 
12.7328 -1.94363 26.7804 13.3748 -0.440546 28.2574 11.8142 -12.2379 14.8626 
12.9558 -10.2172 19.5108 14.0887 -14.369 18.4562 13.8353 -13.9505 18.3482 
13.9281 -14.4741 17.9809 11.7471 -6.01878 21.4248 11.9807 -6.38031 21.7325 
11.8482 -5.98065 21.8356 13.6241 -14.2177 17.6615 13.8603 -14.7601 17.5699 
13.7074 -14.9411 17.0758 14.07 -15.2805 17.3431 14.1864 -14.1268 18.9307 
14.3559 -14.8055 18.4814 11.7137 -5.57534 21.8856 11.6165 -5.20133 21.9936 
11.5637 -5.36214 21.5684 14.1815 -13.0569 19.9044 14.3311 -13.6094 19.7674 
14.3809 -13.2718 20.2509 14.5558 -13.4567 20.581 14.4325 -12.9624 20.6532 
13.3781 -13.6183 17.7434 13.2455 -13.7515 17.43 14.2701 -13.8963 19.3257 
14.0067 -13.4917 19.1521 13.7898 -12.8943 19.211 13.6896 -13.0548 18.9164 
14.4831 -14.1789 19.5736 12.1083 -8.18226 18.2964 12.2571 -8.73119 18.3024 
12.2864 -8.63478 18.5967 13.5379 -13.5427 18.1233 13.2038 -13.0158 17.9156 
12.6166 -15.5903 14.0811 12.3751 -15.6391 13.6007 12.7151 -16.0667 13.6978 
12.062 -7.85243 18.6708 11.9321 -7.43614 18.5811 11.9926 -7.73208 18.3655 
11.5029 -13.5363 12.6717 11.4345 -13.0931 12.4877 11.3986 -13.5117 12.2486 
12.1219 -15.67 13.1105 12.0844 -15.1622 13.4862 12.4621 -15.0689 14.3685 
12.8257 -15.5331 14.5425 11.8995 -15.6382 12.6852 12.0938 -16.0881 12.6443 
13.3777 -15.2498 15.9906 13.7466 -15.6455 16.1369 13.5397 -15.1174 16.512 
13.3513 -14.5755 16.8236 12.9274 -13.3803 17.1612 13.1528 -14.0008 17.0536 
13.0358 -15.4387 15.0613 13.1504 -15.2255 15.5695 12.8088 -14.9667 15.2419 
13.0347 -14.7609 15.9532 11.6448 -10.4759 14.746 11.6831 -9.84717 14.6697 
11.6186 -10.1142 14.3418 12.6273 -14.4307 15.4887 12.4932 -14.5317 15.0547 
13.2876 -15.8864 14.8773 12.0239 -5.65873 22.7164 12.012 -5.35013 23.0544 
11.7696 -5.23799 22.4867 12.2598 -13.5477 15.3748 12.4455 -13.8163 15.6843 
12.2784 -13.1504 15.7683 13.701 -11.9356 19.9204 13.9737 -12.5061 19.9667 
13.9873 -12.2013 20.2718 13.3139 -7.30336 24.0978 13.3633 -6.90607 24.6325 
13.05 -6.75036 24.0365 14.5803 -11.8186 22.5072 14.4572 -11.2992 22.6126 
14.4778 -11.6745 22.1967 14.2054 -9.53048 24.0464 14.0459 -8.90337 24.3104 
14.0052 -9.19972 23.79 14.4236 -10.8844 23.0662 14.2929 -10.705 22.748 
14.4759 -12.3534 21.4026 14.6268 -12.668 21.5483 14.4789 -11.9993 21.8248 
14.3892 -10.5166 23.4684 14.4995 -10.9594 23.4325 12.4487 -7.51672 21.4886 
12.1563 -7.01304 21.2805 12.1782 -7.24345 20.8939 14.2963 -9.43646 24.6736 
14.3299 -9.81973 24.2348 14.4085 -10.0488 24.4343 14.0009 -1.19306 29.4057 
14.0435 -0.670511 29.5676 13.8579 -0.81264 29.0994 14.3339 -10.1265 23.7809 
14.2605 -9.08432 25.0791 14.1573 -8.94158 24.7303 14.3228 -9.14676 25.457 
14.2262 -8.67735 25.5426 14.0221 -9.63951 23.3023 14.1118 -10.1008 22.9642 
14.2446 -10.1422 23.3744 14.0131 -1.61359 29.4118 13.9531 -2.0908 29.1517 
14.0811 -1.98654 29.5721 13.481 -3.08051 27.7561 13.5467 -2.51467 28.103 
13.2698 -2.60002 27.526 13.9365 -8.45083 24.5867 13.4606 -9.29849 22.1378 
13.4827 -9.7551 21.6225 13.7763 -10.0571 22.0822 14.3186 -11.4339 21.9225 
13.9963 -11.9296 20.5052 14.2727 -12.5083 20.5911 14.0548 -11.1083 21.5668 
14.0798 -10.8233 21.9664 14.0642 -10.379 22.4715 14.4388 -12.601 20.9561 
14.2828 -12.004 21.1619 11.8999 -6.52595 21.1189 12.0908 -6.75073 21.5539 
12.5048 -6.75269 22.7467 12.295 -6.8199 22.1022 12.6789 -7.30289 22.5459 
11.5921 -5.68589 21.2343 11.7039 -6.08047 21.0736 11.7425 -6.26148 20.7524 
11.9823 -7.04644 20.3906 11.7965 -6.55666 20.3689 11.8429 -6.88349 19.9395 
13.8528 -7.63249 25.3621 13.8795 -7.36546 25.8167 13.6379 -7.13457 25.2092 
12.2736 -7.86789 20.135 12.0814 -7.56356 19.683 12.2912 -8.0297 19.8023 
13.7507 -8.9785 23.3329 12.7916 -8.0624 21.7714 12.7968 -8.37034 21.3207 
13.1407 -8.65248 22.0275 14.1971 -8.21715 26.0595 14.075 -8.17783 25.5222 
13.7326 -10.7181 21.1502 13.9932 -11.3063 21.1851 11.5698 -4.84753 22.2588 
11.4489 -15.2261 11.7564 11.3705 -14.6929 11.8697 11.3575 -14.9441 11.5414 
11.6662 -3.07344 24.2622 11.889 -3.36747 24.5751 11.7861 -2.94083 24.6516 
11.3032 -14.1587 11.624 11.2763 -14.1235 11.2586 11.3035 -14.5755 11.3761 
11.3349 -15.1016 11.1879 11.5996 -15.4309 12.0474 11.6053 -15.7941 11.7478 
11.7101 -2.54388 24.6995 11.6954 -2.16341 24.7968 11.5883 -2.40517 24.4007 
11.354 -14.2465 11.964 11.3451 -13.8479 11.9267 11.7329 -15.4465 12.4084 
[...]
POINT_DATA 853
VECTORS velocity double
0.949052 -3.29107 -0.508219 1.11556 -3.37669 -0.548226 1.22842 -3.33648 -0.424917 
1.30125 -3.17225 -0.166344 1.32823 -2.87332 0.201805 1.28216 -2.48272 0.550155 
1.14575 -2.03481 0.732519 0.891071 -1.51096 0.751923 0.550943 -0.989851 0.737181 
0.212012 -0.571246 0.831736 -0.102266 -0.26427 1.06037 -0.341596 -0.0990272 1.32399 
-0.475718 -0.0676091 1.48277 -0.481487 -0.151696 1.42071 -0.35676 -0.303381 1.1323 
-0.107463 -0.419056 0.704548 0.257704 -0.381024 0.348756 0.758354 -0.184701 0.193335 
1.38547 0.0711893 0.24395 2.04921 0.189538 0.379347 2.55325 0.0916735 0.468669 
2.71262 -0.0598156 0.493873 2.44129 -0.00683227 0.528606 1.68145 0.421598 0.651566 
0.345312 1.22787 0.819253 -1.15312 1.98884 0.836767 -2.38539 2.32571 0.644463 
-3.25581 2.29235 0.388357 -3.68934 2.14404 0.181898 -3.78358 2.20584 -0.0235118 
-3.69618 2.62068 -0.313277 -3.40868 3.14545 -0.62629 -2.99008 3.52597 -0.871411 
-2.52139 3.76362 -1.09292 -2.0229 3.89301 -1.37396 -1.49655 3.91964 -1.77253 
-0.912494 3.76181 -2.22443 -0.267122 3.3337 -2.66042 0.331498 2.57338 -2.92089 
0.760481 1.56069 -2.95902 0.93704 0.481095 -2.83471 0.935362 -0.521161 -2.60931 
0.871132 -1.3353 -2.33046 0.807769 -1.91048 -2.03542 0.767069 -2.33529 -1.74067 
0.695281 -2.54431 -1.44291 0.580326 -2.46567 -1.15431 0.4116 -2.01095 -0.843533 
0.156817 -1.00661 -0.442331 -0.17826 0.681399 0.100123 -0.496267 2.6597 0.730939 
-0.726251 4.13195 1.38085 -0.859442 4.60973 1.93032 -0.889526 3.9561 2.22205 
-0.794716 2.16059 2.14555 -0.544432 -0.227213 1.64801 -0.196381 -1.85675 0.982332 
0.160305 -2.59092 0.401729 0.478754 -2.93187 -0.0354661 0.736246 -3.12917 -0.328665 
0.95712 -3.47303 -0.60697 1.07174 -3.51839 -0.669164 1.23652 -3.63892 -0.781683 
1.28273 -3.56316 -0.691107 1.375 -3.44715 -0.592539 1.39261 -3.23126 -0.366658 
1.42038 -2.93932 -0.231263 1.37095 -2.65459 0.0461245 1.27808 -2.19406 0.206408 
1.12915 -1.81265 0.374149 0.936146 -1.34625 0.358761 0.710636 -0.966903 0.430561 
0.383146 -0.484285 0.545127 0.139966 -0.222318 0.710647 -0.115845 0.106495 0.889092 
-0.285732 0.190482 1.09868 -0.491351 0.364425 1.32355 -0.602869 0.425915 1.44356 
-0.649384 0.438657 1.43566 -0.599582 0.299774 1.35456 -0.473302 0.177187 1.10631 
-0.320731 0.109788 0.886301 -0.0727695 0.100771 0.654692 0.209373 0.0849866 0.51731 
0.651796 0.185211 0.482918 0.950214 0.300111 0.570487 1.44464 0.357194 0.644382 
1.7853 0.385218 0.743955 2.14684 0.300633 0.748707 2.04205 0.352536 0.807081 
2.03259 0.324698 0.765011 1.63176 0.528365 0.817743 0.868333 0.956062 0.928383 
0.0193416 1.4108 1.01376 -0.779685 1.79334 1.01346 -1.55867 2.06664 0.967014 
-2.22705 2.1336 0.915285 -2.65786 2.10052 0.818244 -2.94555 1.99504 0.722934 
-3.12324 1.96485 0.569392 -3.11103 2.06188 0.376376 -2.95813 2.21364 0.243463 
-2.72996 2.47881 0.0528005 -2.56489 2.69489 -0.0972479 -2.26161 2.99452 -0.327216 
-1.99462 3.03971 -0.372398 -1.59319 3.17592 -0.668635 -1.33282 3.19241 -0.893073 
-0.872561 3.0948 -1.30109 -0.530708 2.89945 -1.54008 0.0816453 2.41054 -2.00087 
0.434376 2.02297 -2.26671 0.893842 1.22349 -2.5001 1.11723 0.623298 -2.57924 
1.26802 -0.3212 -2.60372 1.26785 -0.904963 -2.55096 1.19814 -1.62986 -2.39591 
1.12616 -2.05277 -2.24082 1.02448 -2.30078 -2.06258 0.963253 -2.59686 -1.85248 
0.861166 -2.76534 -1.59016 0.801333 -2.90311 -1.36356 0.669983 -2.7965 -1.12617 
0.516202 -2.58103 -0.841386 0.285349 -1.9092 -0.504593 0.0546223 -1.08716 -0.13924 
-0.200832 0.206181 0.252639 -0.393465 1.30243 0.602311 -0.598523 2.69761 1.03992 
-0.698035 3.1057 1.35355 -0.783422 3.54523 1.65004 -0.814521 3.29496 1.86055 
-0.753441 2.07437 1.8691 -0.645129 0.760837 1.75503 -0.409068 -0.882531 1.31207 
-0.227854 -1.72935 1.01406 0.101368 -2.57173 0.47727 0.317894 -2.87089 0.169585 
0.593445 -3.18796 -0.210103 0.73098 -3.26951 -0.362147 -0.651658 1.81311 1.42952 
-0.559532 1.7275 1.08044 -0.487082 -0.0279445 1.3144 -0.237713 -0.299116 0.51024 
-0.426667 0.282659 0.982239 -0.050328 -2.16392 0.650313 0.239208 -2.25576 -0.189417 
-0.0854039 -1.62559 0.506142 0.450261 -3.13413 -0.0735616 0.685427 -3.13286 -0.855252 
1.21495 -3.80498 -0.993609 0.882339 -3.56379 -0.63674 1.24426 -3.16573 -1.8452 
1.00729 -3.31893 -1.40647 0.185954 1.28262 1.15992 1.35481 -0.377058 -1.93768 
1.57714 -1.64747 -2.22503 0.400789 -2.97933 -0.17737 1.42649 -2.82426 -2.10282 
1.13122 0.809945 1.04765 -0.900041 1.74484 1.19053 1.49913 -2.5092 -0.695035 
1.53538 -3.32579 -0.937903 1.45271 -3.76992 -1.13657 -0.313009 0.729552 0.826765 
-0.819352 1.07246 1.34171 -0.37693 3.05602 -2.04125 0.624719 0.991418 -1.35362 
-1.99195 3.39374 -0.783799 1.08483 0.537651 -2.74266 1.03715 0.760339 1.14082 
-1.60393 1.74635 1.27809 1.21839 -1.55233 -0.327338 0.167602 0.221127 0.366728 
-1.02345 2.38009 0.0763539 -1.54442 2.35888 0.401038 0.860868 -0.847022 -0.0552341 
1.4064 -0.482046 -2.38073 -0.303686 2.03853 -0.662251 -0.653347 1.02434 1.19421 
-0.404624 0.733873 0.929454 0.839156 -3.52635 -0.793553 -0.00640433 2.06127 -1.31034 
-1.43988 2.62242 0.0434377 0.0140998 1.24582 1.31342 0.576903 0.737954 1.13054 
-1.86302 1.57896 1.22832 -0.723009 0.924647 1.15877 -1.86401 1.98288 0.652941 
0.0949397 0.651073 0.934734 -1.94984 1.6372 0.960851 1.61087 -1.75431 -1.73131 
1.1688 -3.75747 -1.2387 -0.445754 1.19898 1.4286 0.969811 0.645285 -1.84831 
1.1896 -0.599579 -1.13194 -1.80738 2.2984 0.40681 -0.714688 2.3514 -0.366142 
0.288462 0.828262 -0.405045 -0.982251 1.87324 0.840694 1.66342 -2.75339 -1.61389 
-1.15263 1.72025 1.00654 -0.588883 1.59407 0.538006 1.61616 -3.4034 -1.52502 
1.56077 -3.54446 -1.69443 -0.474779 0.616503 0.961464 -0.881752 1.27062 1.09315 
-0.728957 0.799299 1.28694 -0.937701 1.42426 1.20101 0.64192 0.558259 0.895598 
-0.2231 0.911683 1.22662 -0.872872 1.17296 1.19573 0.0301523 0.496243 0.772353 
-0.492029 0.932716 1.04573 -1.17738 1.43582 1.07006 -2.3392 1.71136 0.923658 
-1.34541 1.35315 1.27906 -2.1451 1.90919 0.66447 -0.193083 1.2217 0.17441 
0.57087 -0.188723 -0.052494 0.864855 -0.25872 -0.638455 -1.32042 1.71295 0.945873 
1.45582 -1.58155 -1.12316 -0.818097 1.2601 1.26 -0.788881 1.61701 0.882163 
1.59254 -2.62086 -2.08754 1.42005 -3.76506 -1.55335 -0.704322 1.15671 1.39108 
-1.08953 1.86601 0.936956 -0.0594267 -0.198075 0.626667 -0.175323 0.0619946 0.731852 
0.0685358 -0.132804 0.52632 -0.471351 3.0118 -1.80974 -0.293793 2.52715 -1.40954 
-0.206647 2.6254 -1.72278 0.0539453 0.0767972 0.578912 0.267357 -0.156936 0.405022 
0.481838 -0.0948354 0.340951 0.489495 -0.29771 0.244229 -0.201865 -0.181713 0.789071 
0.0611455 -0.424571 0.504601 -0.154043 2.77467 -2.04642 -0.0696747 2.83761 -2.31124 
-0.361854 3.22628 -2.3206 -0.544338 0.227346 1.24211 -0.404877 -0.0852884 1.1073 
-0.487604 -0.0107067 1.27433 -0.435632 -0.223454 1.30471 -0.53444 0.0520028 1.38212 
-0.190795 0.374441 0.767329 -0.073648 0.365356 0.719423 -0.305802 -0.146245 0.938027 
-0.409241 0.151707 1.00229 -0.580751 0.520213 1.13731 -0.521844 0.488698 1.05427 
-0.246961 -0.374083 0.923296 -2.10454 3.02041 -0.347311 -1.88237 2.66153 0.0421276 
-1.77751 2.70993 -0.00684346 -0.281211 0.345999 0.819097 -0.444703 0.675546 0.935395 
2.00298 0.267289 0.550043 2.2148 0.239744 0.59093 2.33401 0.162323 0.433199 
-2.01381 3.23259 -0.589789 -2.21514 3.56748 -0.931413 -2.24263 3.35225 -0.69386 
0.601569 1.03342 1.19712 0.121138 1.27044 1.23376 0.593826 1.07857 1.1298 
2.38748 0.183405 0.612176 1.97414 0.359322 0.767029 1.61337 0.381644 0.701118 
1.77709 0.262163 0.49781 2.46773 0.133178 0.622335 2.68368 0.00660532 0.48723 
1.01003 0.0886572 0.340029 1.05891 -0.0545778 0.196242 0.748654 -0.00371345 0.318858 
0.432674 0.11736 0.471987 -0.177205 0.587338 0.837804 0.122369 0.317328 0.650686 
1.50075 0.225482 0.437311 1.18557 0.188548 0.419009 1.20963 0.315501 0.579643 
0.824476 0.245832 0.519653 -2.16128 1.64609 1.06355 -2.70193 1.82918 0.773892 
-2.57797 1.79735 0.898393 0.819679 0.430648 0.734021 1.02887 0.46075 0.783406 
1.7256 0.159194 0.312908 0.328108 1.81756 -1.71252 0.539652 1.5403 -1.84292 
0.238151 2.24889 -2.1162 0.265754 0.713893 1.06337 0.382241 0.595276 0.915899 
-0.0707574 0.798866 1.09896 -0.782586 0.937542 1.33344 -0.668436 0.566732 1.32232 
-0.70846 0.65902 1.3825 0.467454 0.243893 -0.223614 0.69596 -0.147529 -0.357418 
0.602406 0.317893 -0.581041 -0.423175 -0.06756 1.42482 -0.419481 0.117516 1.33671 
-0.490756 0.14542 1.42351 0.0140653 -0.0515967 0.787477 0.164729 -0.0732221 0.57866 
-0.00356412 0.184347 0.672402 -0.317266 0.0574915 1.21346 -0.386407 0.299556 1.19714 
-0.558928 0.136118 1.48074 -0.495231 -0.098133 1.48279 -0.53449 0.151455 1.47092 
-0.209304 -0.0216897 1.09273 -0.235068 -0.162613 1.19817 -0.500315 2.18848 -0.502222 
-0.5843 2.58271 -0.964395 -0.803084 2.73288 -0.83953 0.171052 -0.390126 0.7728 
0.0267735 -0.234107 0.872226 0.0521099 -0.404934 0.930416 1.32646 -3.73862 -0.924675 
1.24308 -3.73719 -0.897098 1.3529 -3.84438 -1.11743 -0.108784 -0.0662916 0.970591 
0.3075 -0.551525 0.70204 0.252932 -0.329943 0.622575 0.379107 -0.766413 0.766855 
0.464525 -0.753772 0.645159 -0.179298 0.364241 0.839784 -0.305115 0.411065 1.01123 
-0.208015 0.159791 0.998322 1.35356 -3.66812 -0.846917 1.42132 -3.61011 -0.855329 
1.33491 -3.53908 -0.673709 1.61614 -3.09537 -1.26639 1.59245 -3.41105 -1.2936 
1.64705 -3.13141 -1.57516 0.308842 -0.173762 0.42375 -0.444473 1.17397 0.709675 
-0.616299 1.29754 0.911669 -0.519016 0.935616 1.03532 -0.556927 0.395656 1.40127 
-0.729624 0.736863 1.40575 -0.624653 0.350348 1.40823 -0.642059 0.73481 1.35225 
-0.565332 0.669317 1.27687 -0.440883 0.587518 1.12777 -0.573585 0.161349 1.44248 
-0.636695 0.432953 1.45877 -0.675913 2.98614 -1.43292 -0.419216 2.50151 -1.13502 
0.166853 1.44458 -0.851189 -0.136074 1.99746 -0.946393 -0.0160385 1.46687 -0.481522 
-0.599576 3.38687 -2.14941 -0.709907 3.29799 -1.84572 -0.929164 3.4488 -1.75036 
-1.11858 3.18291 -1.1099 -1.17938 3.53218 -1.55641 -1.43918 3.56164 -1.3306 
0.640435 -0.606194 0.195336 0.777548 -0.883462 0.188351 0.740411 -0.531218 -0.0946562 
-1.17638 2.79817 -0.438892 -1.48376 3.18423 -0.753369 -1.32793 2.83213 -0.347494 
-0.0836366 0.526097 0.576394 -0.426899 1.78719 -0.0483567 -0.623697 1.94794 0.110784 
-0.404835 1.43919 0.357481 0.636954 -0.99945 0.610425 0.54999 -0.70688 0.466033 
-0.736479 1.12134 1.25187 -0.701743 0.812511 1.38602 0.111429 2.69027 -2.48668 
2.26455 0.159653 0.64816 1.81961 0.433025 0.803912 2.03181 0.273455 0.681312 
1.09486 0.628641 -2.68843 1.26473 0.115035 -2.47568 1.23463 0.10997 -2.5962 
1.29449 0.718485 0.876094 1.24156 0.723773 0.797069 1.69378 0.461159 0.732448 
2.13081 0.154869 0.577606 2.40857 0.112423 0.63213 2.63178 -0.0728903 0.502799 
1.17394 0.130343 -2.68223 1.12018 0.0578204 -2.71857 1.01525 0.582968 -2.81007 
1.38754 0.679232 0.928459 0.968489 0.904058 1.0036 2.391 0.158378 0.66259 
2.07435 0.322597 0.778317 0.702308 1.03738 0.861561 1.07979 0.790404 0.741927 
0.0785296 1.36327 1.09117 0.422117 1.20053 0.970992 0.530064 1.13458 1.05279 
1.65579 0.540492 0.897338 2.1087 0.321527 0.783494 0.166459 1.33897 0.927708 
-0.366386 1.60328 1.02185 -0.334434 1.60147 0.937882 -0.426224 1.65096 0.855376 
-0.918509 1.87357 0.935295 -1.94028 2.20079 0.83569 -1.8108 2.21406 0.760594 
-1.44325 2.07181 0.897364 -1.16817 1.94051 1.00888 -0.261142 1.48056 1.20079 
-0.402359 1.59032 1.11299 0.800343 -3.40696 -0.473863 0.944523 -3.54984 -0.649496 
0.842227 -3.37792 -0.491389 1.08633 0.799071 1.11436 1.62551 0.560338 0.942543 
1.61169 0.554903 0.966104 -0.850683 1.79008 1.08905 -1.33332 1.94976 1.07452 
-2.87093 2.34292 0.512551 -2.39279 2.25427 0.754405 -2.76182 2.24945 0.662822 
-2.49835 2.12147 0.860528 -2.93644 2.18693 0.644421 -2.78439 2.05549 0.788553 
-3.21704 2.15227 0.523152 0.631771 -3.31308 -0.502668 0.561897 -3.1241 -0.518892 
0.772612 -3.37273 -0.829876 -3.52737 2.21133 0.279176 -3.39355 2.10204 0.433243 
-1.87587 2.11624 0.955641 -1.91878 1.96346 1.10576 -1.61555 1.96891 1.10874 
-1.22911 1.75927 1.26498 1.07042 -3.72055 -0.863485 1.06714 -3.64281 -0.769741 
-0.489875 1.50674 1.29327 1.26724 -2.3759 -2.2061 1.34849 -3.02044 -1.99833 
1.20963 -2.60071 -2.08763 -2.43232 3.36693 -0.699923 -2.05293 2.64069 0.0403746 
-1.66545 2.33294 0.408501 -2.76683 3.67221 -0.991664 -2.62652 3.26799 -0.612913 
-2.81661 3.09134 -0.4782 -2.43465 2.87475 -0.234447 -2.04212 3.62752 -1.04659 
-1.79933 3.31051 -0.746342 -1.78499 3.4948 -0.991578 -2.67599 2.58884 -0.0281408 
-2.31466 2.23732 0.345752 -2.22031 2.32001 0.295293 -1.65469 3.55221 -1.14649 
-1.75966 3.92073 -1.56191 -1.21873 3.87323 -1.99534 -0.584887 0.937664 1.40083 
-0.645953 1.11209 1.62458 -0.698136 1.82527 1.64546 -0.479281 1.48791 0.844661 
-0.585402 2.2894 1.05839 -0.511353 2.07059 0.841709 -0.0605179 -0.877876 0.136572 
-0.214373 5.28598e-05 0.346132 -0.101425 -0.344924 0.0976333 -0.598204 3.59334 -2.45299 
-2.2776 3.83676 -1.2158 -0.811473 1.44845 1.09727 -0.883147 1.74744 0.873738 
-0.908011 1.61764 1.06007 -0.280907 0.645807 0.393397 -0.348341 0.654618 0.601915 
-3.5256 2.1781 0.146872 -3.53443 2.09538 0.259844 -3.16039 2.0015 0.460993 
-2.45561 1.80664 0.990674 -2.32952 1.87015 1.04692 -1.74972 1.63999 1.28452 
0.327351 -2.69861 -0.18184 0.154796 -2.43844 0.16881 0.0805694 -2.01202 0.166965 
-3.492 2.0788 0.35103 -3.76565 2.13211 0.085829 -3.76028 2.3756 -0.155697 
-3.47018 2.30571 0.0360151 -3.05222 1.96616 0.650562 -3.05185 2.73959 -0.229411 
-2.99085 2.94238 -0.381939 -3.20188 3.34492 -0.745707 -2.88185 2.38497 0.102842 
-3.25459 2.61805 -0.174206 -3.58235 2.89591 -0.480112 -3.37841 2.44094 -0.0576565 
-0.53944 0.966583 1.20448 -0.44702 0.0966817 1.11686 -3.02698 2.11955 0.324474 
-0.290077 -0.614695 0.792372 -0.344552 -0.0111377 0.780229 -0.151329 -1.07048 0.495995 
-1.51617 1.52718 1.04264 -1.69405 1.68957 0.905891 -2.03958 1.76032 0.81928 
0.608269 -2.74056 -0.994444 0.682018 -2.94459 -1.02285 0.574743 -2.84294 -0.808225 
-0.495876 0.967738 1.03629 -0.425809 0.783833 0.830974 -2.17606 1.67478 0.941116 
-2.5757 1.86551 0.674003 -2.70184 1.86062 0.687009 -1.52337 2.92792 -0.35762 
-1.23296 2.52167 0.0680633 0.78653 -3.07286 -1.17325 0.7356 -2.8694 -1.23901 
0.051645 2.98913 -2.8245 0.366766 2.35922 -2.62355 -1.74303 2.85975 -0.189723 
-1.75452 3.06362 -0.445081 0.915072 -1.42998 0.547805 0.831488 -1.17915 0.416741 
0.790095 -1.24059 0.59809 0.722442 -1.23759 0.737157 1.22539 -1.11912 -0.764498 
1.04091 -0.455692 -0.87892 1.06923 -0.905643 -0.538847 1.03033 -1.68453 0.579003 
1.04191 -1.58533 0.362356 1.13447 -1.92195 0.552854 1.0364 -1.78606 0.757566 
1.16675 0.157376 -1.87301 1.13604 0.47797 -2.23506 0.948278 0.921811 -2.17526 
1.27886 -2.34909 0.411374 1.21275 -2.12879 0.499422 1.22689 -2.26642 0.664059 
1.46298 -2.83224 -0.426142 1.41428 -2.61219 -0.215583 1.39911 -2.79345 -0.0910119 
1.31455 -2.68318 0.394733 1.35348 -2.76445 0.154615 1.32684 -2.57515 0.290843 
1.34283 -2.45399 0.101393 1.20473 -1.97998 0.287714 1.45028 -3.29762 -0.590881 
1.47722 -3.10034 -0.56005 1.4127 -3.10531 -0.304282 1.38392 -2.03829 -0.48399 
1.27823 -1.98748 -0.0638534 1.37212 -2.31149 -0.188684 0.955527 1.08217 -2.75995 
0.818775 1.47631 -2.76838 1.03806 0.864673 -2.54629 0.732045 1.30874 -2.04172 
0.671848 1.66784 -2.41491 -0.604384 1.76991 1.24433 0.623654 1.91731 -2.72062 
0.571041 2.09355 -2.96281 0.952462 0.971931 -2.83973 1.42432 -0.917979 -2.45093 
1.34918 -0.422033 -2.5146 1.51571 -1.0967 -2.29398 1.3752 -2.9217 -0.0228305 
1.4556 -1.33987 -2.40693 1.2716 -0.56561 -2.58933 1.62477 -1.75322 -2.01261 
1.54563 -1.14115 -2.09402 1.45486 -3.4626 -0.762944 1.5123 -3.5834 -1.06627 
0.876337 1.03183 -2.91604 1.3617 -3.07159 -0.11729 1.54656 -2.96373 -0.857657 
1.16879 -1.75371 0.108349 1.09925 -0.21001 -2.69217 1.3477 -3.20765 -0.255879 
1.32139 -3.04078 0.00555373 1.0562 -1.43435 0.0893065 1.30106 -3.39911 -0.48412 
1.3304 -3.31074 -0.375674 1.27036 -3.27153 -0.312062 1.70925 0.490827 0.918632 
1.26519 -3.60922 -0.746327 1.25462 -3.45672 -0.564803 1.20744 -3.48357 -0.61395 
1.17632 -3.36826 -0.502233 1.39211 -3.34176 -0.490277 1.09035 -3.45625 -0.622741 
1.15611 -3.59057 -0.733823 1.17631 -3.52002 -0.663123 1.01178 -3.40766 -0.585788 
0.942484 -3.36846 -0.544077 1.02832 -3.51408 -0.65761 1.03831 -3.34851 -0.548995 
1.24809 -1.3122 -2.47905 1.45957 -1.76322 -2.35615 1.41628 -2.08336 -2.30987 
0.848664 -3.21661 -0.43416 0.851182 -3.30312 -0.467369 1.63654 -3.14604 -1.7776 
1.6585 -2.73415 -1.87699 1.59228 -3.19383 -1.88245 1.52944 -3.27501 -1.90539 
1.50961 -2.73189 -2.1227 1.13015 -3.65211 -0.789134 0.732128 -3.20393 -0.343927 
0.612281 -3.03251 -0.194218 0.620509 -3.11552 -0.2174 0.706403 -3.35138 -0.375897 
0.668692 -3.2386 -0.296694 0.536227 -3.06761 -0.119971 0.455439 -3.03716 -0.0237101 
0.388768 -2.90562 0.0767985 0.691517 -3.39826 -0.40521 0.545321 -3.1966 -0.167473 
0.116117 -2.56541 0.465897 0.226484 -2.76644 0.295832 0.245315 -2.74333 0.277095 
0.326667 -2.7917 0.16336 -0.21684 -1.78882 1.00918 -0.0727185 -2.19614 0.751337 
-0.0390164 -2.27303 0.708113 -0.0157809 -2.29875 0.675742 -0.374476 -1.19204 1.31237 
-0.372722 -1.1674 1.2901 0.217332 -2.78792 0.248018 0.23973 -2.82328 0.255065 
0.0529215 -2.48072 0.531171 1.65388 -2.29075 -1.65437 1.59042 -2.22231 -1.26991 
1.61387 -2.68805 -1.23191 0.36396 -2.97839 0.0894486 0.864157 -3.30033 -1.13184 
0.953008 -3.51391 -1.10152 0.433558 -3.10692 -0.126408 0.186961 -2.66184 0.221323 
1.60082 -2.13483 -2.16201 0.488111 1.01329 1.26941 -0.273066 -1.45207 1.04487 
-0.147264 -1.95627 0.854399 -0.320861 -1.34258 1.16737 0.945487 -0.0401214 -2.73043 
1.08515 -0.621263 -2.61427 1.0588 -1.0512 -2.50587 -0.286038 -0.958837 0.901827 
1.02222 -1.39404 -2.39652 0.911846 -0.957789 -2.47667 1.01305 -1.70933 -2.29012 
1.14483 -1.82484 -2.32396 -0.00859419 -1.42416 0.181248 0.119488 -1.62862 -0.128308 
0.951706 -1.87239 -2.18487 1.07397 -2.19115 -2.15178 1.04662 -3.7306 -0.941246 
1.20409 -3.83159 -1.129 0.88667 -2.256 -1.94758 0.919677 -2.09134 -2.06246 
1.0083 -2.47645 -1.96608 0.88312 -3.09329 -1.36667 0.869439 -3.58774 -0.717234 
1.01422 -3.66588 -1.03247 0.830125 -1.6356 -2.18245 1.33556 -2.22124 -2.27389 
0.913698 -2.72312 -1.70575 0.819243 -2.56107 -1.66891 0.853035 -2.41504 -1.81572 
0.788602 -2.14621 -1.88774 0.754246 -2.735 -1.40751 0.782662 -2.65431 -1.53359 
0.837248 -2.84953 -1.48125 0.476045 -2.83915 -0.519777 0.739643 -2.47399 -1.59448 
0.689698 -2.69752 -1.28175 0.420805 -2.54206 -0.572025 0.272917 -2.07791 -0.387132 
0.393157 -2.27879 -0.650304 0.555461 -2.52569 -1.01047 0.62622 -2.64056 -1.14355 
-0.0616433 -1.95408 0.578741 0.505928 -2.29838 -1.00595 0.465381 -2.31705 -0.856485 
0.351102 -1.96949 -0.675153 0.230073 -1.53143 -0.48962 0.295442 -1.58615 -0.658318 
1.14199 -3.31671 -1.62676 1.02407 -3.00253 -1.68019 1.09832 -2.89307 -1.84429 
0.639392 -2.53701 -1.29619 -0.277922 -1.26665 0.989626 1.50629 -3.67082 -1.64082 
1.45472 -3.40727 -1.84679 -0.613751 0.371301 1.74638 -0.537136 -0.0969528 1.55058 
-0.476128 -0.587527 1.47243 -0.437179 -0.596416 1.31601 -0.702459 1.39163 1.82674 
-0.589292 0.454739 1.58761 -0.720361 1.38826 1.94472 -0.789582 2.25813 2.04519 
-0.689654 0.968412 1.94249 -0.74754 2.57902 1.67545 -0.792389 2.76008 1.8748 
-0.835626 3.04066 2.07657 -0.856271 3.65877 2.0378 -0.850505 4.00367 1.93308 
-0.82321 4.0912 1.77629 -0.799318 3.40047 1.75261 -0.735408 2.80422 1.56157 
-0.887773 4.42705 2.11387 -0.805416 4.50478 1.68089 -0.774632 3.95575 1.57154 
-0.860169 3.19004 2.23787 1.241 0.204805 -2.33236 -0.68416 2.54975 1.39297 
-0.644202 2.48609 1.2446 -0.0430739 -0.351222 -0.0652583 -0.185089 0.347745 0.177005 
1.12639 -2.66079 -1.99103 -0.00326625 -0.252701 -0.189408 0.104697 -1.02936 -0.296143 
-0.305029 1.11813 0.373978 0.18423 -1.59273 -0.335786 -0.718331 3.61092 1.37469 
-0.65749 3.37049 1.1734 -0.659673 3.01004 1.21788 -0.740352 3.32409 1.49461 
-0.437264 1.93028 0.633927 -0.559657 2.73756 0.910723 -0.622912 3.50211 1.05673 
0.933321 -2.99081 -1.54383 -0.347374 1.6943 0.410749 1.43392 0.556217 0.962609 
0.664982 -3.3921 -0.445457 -2.29124 1.97961 1.0157 1.12958 0.514597 0.869194 