# vtk DataFile Version 3.0
vtk output
ASCII
DATASET POLYDATA
POINTS 853 float
14.0136 1.4229 30.6976 13.823 0.461444 30.5688 13.7111 -0.597243 30.3334 
13.6505 -1.74624 29.9343 13.6122 -3.03883 29.3639 13.6378 -4.38524 28.648 
13.7081 -5.7039 27.8026 13.8427 -7.04992 26.7925 14.0622 -8.32043 25.6955 
14.2972 -9.4301 24.6172 14.5321 -10.4784 23.5018 14.7303 -11.4323 22.4244 
14.8588 -12.3017 21.4037 14.8573 -13.0941 20.4358 14.7247 -13.7777 19.5744 
14.5412 -14.4044 18.6841 14.1992 -14.9564 17.7204 13.6859 -15.4487 16.6433 
13.0339 -15.8489 15.4012 12.2057 -16.1104 14.1066 11.3501 -16.1752 12.9261 
10.6958 -15.9855 11.9036 10.4027 -15.5292 11.1458 10.5241 -14.8093 10.6975 
11.0295 -13.8541 10.5325 11.6918 -12.8073 10.7353 12.4215 -11.7769 11.3138 
13.2253 -10.8099 12.1849 13.8795 -9.98721 13.2351 14.0893 -9.3904 14.3637 
13.8656 -9.07204 15.5107 13.5037 -9.00897 16.6078 13.228 -9.02373 17.6024 
13.0011 -8.94903 18.5666 12.7226 -8.68072 19.5753 12.3538 -8.14414 20.6353 
11.9326 -7.35241 21.7245 11.5144 -6.26515 22.8539 11.2172 -4.97376 23.9242 
11.0823 -3.55535 24.8979 11.1751 -2.02752 25.7402 11.4761 -0.526513 26.3851 
11.8648 0.867261 26.8236 12.23 2.05834 27.1217 12.5463 3.08706 27.4098 
12.8514 4.02395 27.6574 13.1227 4.82191 27.8837 13.3956 5.44371 28.1327 
13.7655 5.89935 28.3658 14.2918 6.19586 28.5581 14.9066 6.32628 28.7351 
15.5253 6.28841 28.9365 16.0367 6.10533 29.1489 16.2953 5.81382 29.3666 
16.2773 5.42385 29.6139 16.007 4.93886 29.9121 15.5776 4.3755 30.2145 
15.1018 3.75102 30.4371 14.6391 3.05065 30.6262 14.27 2.2761 30.7364 
14.0036 1.95135 30.3268 13.8512 1.33889 30.3734 13.6783 0.584044 30.098 
13.6381 -0.0556272 30.0701 13.5309 -1.02512 29.7084 13.5033 -1.87137 29.4679 
13.408 -2.82097 28.906 13.461 -3.64334 28.5944 13.4659 -4.76746 27.865 
13.5782 -5.72449 27.2883 13.6139 -6.61878 26.5025 13.7656 -7.45019 25.834 
13.9749 -8.48259 24.8761 14.1874 -9.25545 24.1802 14.298 -9.96046 23.3055 
14.4737 -10.6125 22.6977 14.583 -11.3569 21.7484 14.6111 -11.9505 20.9841 
14.5991 -12.5009 20.1886 14.5391 -12.9515 19.7324 14.3674 -13.4696 18.9837 
14.1206 -13.8134 18.4181 13.8051 -14.1592 17.6449 13.4858 -14.4887 17.0686 
12.9721 -14.8415 16.1328 12.5445 -14.9718 15.4148 12.0407 -15.2544 14.4936 
11.5414 -15.3207 13.6312 11.0062 -15.424 12.7444 10.7928 -15.1875 12.2166 
10.5567 -15.106 11.6582 10.575 -14.7511 11.3058 10.8227 -14.1986 11.1054 
11.1535 -13.632 11.0728 11.4659 -13.077 11.0941 11.8516 -12.4808 11.3526 
12.2565 -11.8531 11.9516 12.5836 -11.3534 12.4755 12.8738 -10.8618 13.2329 
13.1616 -10.4346 14.0012 13.2775 -10.1059 14.9342 13.2919 -10.0025 15.6604 
13.2244 -9.91306 16.5234 13.2249 -9.82714 17.1283 13.1485 -9.66897 18.0637 
13.0978 -9.62397 18.6259 12.9101 -9.22925 19.6938 12.7077 -8.9044 20.3367 
12.3982 -8.21236 21.3652 12.1368 -7.71759 22.0347 11.765 -6.60455 23.1755 
11.5377 -5.82194 23.8291 11.3467 -4.6027 24.7471 11.2512 -3.73792 25.3296 
11.2912 -2.26986 26.143 11.4636 -1.35053 26.563 11.7276 -0.050105 27.0571 
11.9595 0.841932 27.3196 12.1338 1.71012 27.4888 12.4326 2.46709 27.6706 
12.7146 3.32892 27.829 12.9874 3.83869 28.0191 13.1937 4.46959 28.1131 
13.507 4.92285 28.2312 13.8053 5.43401 28.3456 14.1596 5.68829 28.4619 
14.4988 5.93915 28.5793 14.8154 6.04288 28.6775 15.2181 6.12771 28.7995 
15.4923 6.04725 28.9176 15.7654 5.9863 29.0298 15.9435 5.8276 29.1685 
15.9527 5.55267 29.3432 15.9077 5.27308 29.5659 15.644 4.92481 29.6778 
15.4909 4.59934 29.8926 15.0903 4.10229 30.0427 14.807 3.6577 30.2673 
14.457 3.12876 30.2393 14.2788 2.66016 30.3904 15.5528 5.71168 29.0468 
15.2446 5.87677 28.8627 15.4819 5.29885 29.3172 14.7566 5.64171 28.751 
15.1567 5.57132 28.9775 15.0644 4.66216 29.5574 14.17 5.115 28.6646 
14.8089 5.13981 29.0425 14.5051 3.83045 29.7727 13.5628 4.2769 28.5776 
13.5669 1.58351 29.7536 13.9756 2.81393 29.8499 12.4946 1.80394 28.1667 
12.9976 3.17316 28.4215 11.1586 -13.7367 11.641 11.8084 -4.29433 25.6997 
11.7806 -2.08425 26.8959 14.2946 4.43394 29.1207 12.2105 0.379639 27.8321 
10.878 -14.3973 11.8752 11.5842 -12.9663 11.7049 13.0271 -3.42703 27.8796 
13.1593 -1.59077 28.8494 13.2645 0.0815455 29.3733 14.0051 -9.98989 22.4414 
14.1006 -12.1158 19.5987 11.8306 -7.08066 22.4586 12.1673 -6.4521 24.0989 
12.9581 -9.21864 19.0981 11.1388 -2.94842 25.5727 11.2339 -14.4095 12.9124 
12.0656 -12.268 12.6935 13.1467 -5.32689 26.7293 13.7287 -8.662 23.8703 
13.1772 -9.72506 20.3084 13.2895 -10.4744 18.4825 13.3654 -6.70476 25.7371 
11.4737 -3.08668 26.057 12.6442 -8.30306 22.2121 14.157 -11.0456 21.083 
13.2253 -13.3856 17.1339 13.7438 3.52679 29.154 12.1976 -7.37581 22.8835 
13.1811 -9.9485 19.2996 11.4315 -13.6118 12.3694 11.8274 -14.158 14.1365 
12.4087 -11.7134 13.9235 13.8033 -12.8119 18.4277 13.1949 -10.8566 16.8573 
12.4993 -13.8668 15.7418 12.8692 -11.2281 15.4157 12.1756 -3.20447 26.849 
13.263 2.48823 29.1104 11.8407 -13.1745 13.4629 11.7946 -5.37579 24.7642 
12.432 -5.40932 25.6168 13.2057 -10.5334 17.6998 12.8957 -8.98724 21.2572 
12.9119 -7.74411 23.6244 13.6176 -10.7705 19.838 12.5019 -1.97168 27.7972 
13.4401 -11.6215 18.1629 13.5248 -9.87029 21.3736 12.7539 -0.797436 28.5017 
12.6572 0.143511 28.5686 13.6515 -13.3774 17.8631 13.349 -12.4469 17.6058 
14.116 -12.6962 19.1215 13.7125 -11.9811 18.9154 12.1622 -14.3914 14.9756 
12.2342 -13.3702 14.9244 12.6056 -12.5317 15.756 12.9343 -13.972 16.5239 
12.7912 -13.1135 16.4195 13.027 -11.9987 16.624 12.7776 -11.0251 14.6182 
12.455 -12.0592 14.8135 13.0912 -10.7664 16.1269 13.3262 -8.97514 22.5367 
13.3798 -7.46252 24.7733 12.8636 -6.45413 25.077 13.2657 -11.5542 17.3705 
12.5597 -4.33004 26.6725 14.0579 -11.4834 20.1667 13.7293 -10.5973 20.6014 
12.1346 -0.869799 27.6452 12.8898 1.23496 28.887 12.1284 -12.843 14.3081 
13.5564 -11.1631 19.1378 14.1851 -14.3579 18.1469 13.9806 -14.0519 18.0091 
13.9754 -14.4882 17.72 11.9752 -7.40356 22.228 12.1661 -7.60812 22.3941 
11.9698 -7.21884 22.6285 13.677 -14.3232 17.3936 13.8275 -14.7585 17.3637 
13.5863 -14.9616 16.9071 13.9475 -15.2069 17.2019 14.3375 -14.1255 18.5543 
14.4013 -14.6932 18.2127 11.7836 -6.83662 22.8096 11.6248 -6.45234 23.0272 
11.6953 -6.7679 22.5823 14.4713 -13.2296 19.3641 14.5598 -13.6515 19.2685 
14.6415 -13.3461 19.6905 14.7899 -13.4434 20.0034 14.7115 -13.0641 20.0542 
13.5306 -13.8552 17.413 13.3469 -13.9843 17.1236 14.4609 -13.9117 18.8908 
14.2441 -13.6319 18.704 14.1033 -13.1898 18.7244 13.9789 -13.3371 18.4633 
14.6453 -14.0984 19.1366 13.1244 -9.65386 18.3851 13.1992 -10.0641 18.2566 
13.1877 -9.99248 18.5719 13.7283 -13.7665 17.7653 13.4646 -13.3844 17.5298 
11.8018 -15.7502 13.8378 11.4584 -15.7803 13.3309 11.7703 -16.1712 13.4971 
13.0329 -9.40837 18.8524 12.961 -9.10274 18.879 13.0453 -9.32228 18.5748 
11.154 -14.0319 12.1548 11.2728 -13.6927 11.9555 11.0409 -14.0166 11.7518 
11.1226 -15.7803 12.8218 11.2428 -15.3582 13.1425 11.7971 -15.2881 14.0685 
12.1192 -15.6958 14.3285 10.8595 -15.7234 12.3842 10.9809 -16.115 12.3986 
13.028 -15.344 15.8434 13.3866 -15.6672 16.0438 13.3051 -15.1734 16.3649 
13.2433 -14.6935 16.6146 13.0673 -13.7125 16.8221 13.1694 -14.2115 16.7784 
12.4598 -15.5893 14.8774 12.7156 -15.3643 15.3941 12.3428 -15.1646 15.0021 
12.7482 -14.9325 15.7377 12.6327 -11.3046 14.3082 12.9081 -10.7456 14.3349 
12.7744 -10.9983 13.9554 12.3163 -14.6867 15.1906 12.08 -14.7979 14.7328 
12.6283 -15.9992 14.7438 11.9136 -6.57034 23.5362 11.7997 -6.13602 23.9297 
11.6651 -6.27904 23.4621 12.1639 -13.9391 14.9502 12.3134 -14.1519 15.3189 
12.3403 -13.584 15.336 14.1101 -12.414 19.3679 14.3222 -12.8221 19.4066 
14.355 -12.5586 19.6909 13.1698 -7.56054 24.2634 13.1053 -6.98957 24.8391 
12.847 -7.05659 24.3623 14.805 -11.875 21.9095 14.6855 -11.4353 22.0616 
14.7376 -11.8217 21.6015 14.2412 -9.59576 23.7555 14.0169 -8.96662 24.1109 
14.0588 -9.37824 23.5561 14.6058 -10.9945 22.5763 14.514 -10.9226 22.2676 
14.7648 -12.4935 20.7724 14.8834 -12.7097 20.9114 14.7576 -12.1478 21.204 
14.5219 -10.5916 23.0368 14.639 -10.9728 22.9486 12.783 -8.65252 21.7641 
12.5043 -8.29676 21.7362 12.6327 -8.5976 21.2765 14.2526 -9.348 24.381 
14.3534 -9.80023 23.9025 14.4157 -9.95223 24.0731 13.5279 0.440364 29.8094 
13.6203 0.99027 29.9424 13.3902 0.882179 29.565 14.4216 -10.182 23.4065 
14.1529 -8.92496 24.8115 14.0806 -8.88522 24.5035 14.1782 -8.8897 25.1558 
14.0445 -8.42935 25.2918 14.1584 -9.89529 22.9945 14.3035 -10.3729 22.5751 
14.3838 -10.2998 22.9895 13.5154 -0.0307969 29.7967 13.4163 -0.557272 29.5466 
13.5781 -0.472681 29.8975 12.8449 -1.83594 28.2972 12.936 -1.10803 28.6601 
12.6374 -1.33361 28.1874 13.8421 -8.47584 24.4509 13.7539 -9.94088 21.8916 
13.855 -10.4436 21.2767 14.0855 -10.5701 21.6814 14.6151 -11.6892 21.3406 
14.3761 -12.3231 19.9179 14.596 -12.7351 19.9911 14.4016 -11.5134 21.0111 
14.3926 -11.2037 21.4479 14.3217 -10.7282 22.0263 14.7353 -12.7497 20.3385 
14.6132 -12.2698 20.5477 12.2521 -7.93956 21.7522 12.3521 -7.98912 22.0945 
12.5125 -7.55806 23.2085 12.4395 -7.85789 22.5898 12.7821 -8.12188 22.845 
11.8423 -7.17972 22.1583 12.0321 -7.57664 21.8665 12.1761 -7.82956 21.4838 
12.5537 -8.56763 20.8477 12.3556 -8.17869 20.9963 12.5302 -8.53751 20.4508 
13.5995 -7.47256 25.307 13.5568 -7.08005 25.7553 13.3453 -7.02589 25.2829 
12.9142 -9.26683 20.3179 12.8323 -9.10614 19.9633 13.001 -9.44463 19.9353 
13.8551 -9.32184 23.1495 13.1004 -9.02195 21.8624 13.2024 -9.40037 21.328 
13.4312 -9.43833 21.9427 13.933 -7.8613 25.8163 13.8572 -7.95823 25.3479 
14.1394 -11.3009 20.6428 14.3671 -11.7418 20.6126 11.4836 -6.01267 23.3716 
10.4729 -15.3239 11.4319 10.5506 -14.9079 11.4879 10.4652 -15.0918 11.2025 
11.1728 -3.3474 25.4326 11.346 -3.47956 25.6541 11.2531 -3.01699 25.7727 
10.6749 -14.4963 11.2142 10.6714 -14.4632 10.8756 10.5336 -14.8039 11.0172 
10.4128 -15.2012 10.8857 10.5734 -15.5076 11.7323 10.5011 -15.7901 11.4804 
11.2003 -2.59352 25.8516 11.2109 -2.15249 25.9598 11.1257 -2.60421 25.6115 
10.6907 -14.5688 11.5375 10.8386 -14.2689 11.4728 10.7154 -15.5432 12.0865 
[...]
POINT_DATA 853
TEXTURE_COORDINATES tcoords 2 double
20.2665 -1.93018 18.9052 -2.9059 17.4376 -3.88351 15.8596 -4.83522 14.1616 
-5.71628 12.3412 -6.475 10.4193 -7.06866 8.4296 -7.48126 6.40853 -7.72536 
4.37905 -7.83709 2.34636 -7.86127 0.298723 -7.83225 -1.79439 -7.75826 -3.96204 
-7.61587 -6.22605 -7.35624 -8.58762 -6.92319 -11.0248 -6.26939 -13.4848 -5.35364 
-15.8647 -4.14439 -18.0105 -2.65813 -19.7742 -0.958444 -21.0359 0.871382 -21.7069 
2.7352 -21.7309 4.52061 -21.0888 6.09526 -19.8431 7.29262 -18.1072 8.02802 
-15.9971 8.27625 -13.6397 8.03846 -11.1793 7.3357 -8.75606 6.24017 -6.45534 
4.94046 -4.26977 3.69443 -2.1576 2.6995 -0.0910577 2.0362 1.95036 1.69525 
3.98174 1.62989 6.0073 1.78437 8.01557 2.10487 9.97322 2.54561 11.8431 
3.0718 13.605 3.65326 15.2619 4.25468 16.8257 4.83138 18.3071 5.33742 
19.7022 5.73385 20.9941 5.99663 22.1595 6.11731 23.1749 6.09829 24.0224 
5.94703 24.6925 5.66883 25.1799 5.25629 25.4573 4.70751 25.4997 4.0751 
25.326 3.37419 24.9463 2.60477 24.3642 1.77364 23.5872 0.892982 22.6301 
-0.024156 21.5148 -0.967525 20.4081 -0.599737 19.5842 -1.30282 18.3919 -1.86414 
17.5947 -2.60144 16.204 -3.30092 15.1653 -4.00483 13.7816 -4.43649 12.7791 
-5.09958 11.1849 -5.52807 9.92828 -5.99529 8.42122 -6.07821 7.16223 -6.31667 
5.41734 -6.47373 4.14646 -6.69208 2.57013 -6.49246 1.29721 -6.69903 -0.511165 
-6.50852 -1.97311 -6.3918 -3.71631 -6.08737 -5.05685 -6.11093 -7.03471 -5.72922 
-8.55452 -5.3871 -10.3842 -4.6811 -11.8374 -4.29487 -13.8264 -3.38996 -15.0924 
-2.55984 -16.7585 -1.64393 -17.9779 -0.577138 -19.3302 0.589393 -19.8092 1.69403 
-20.551 2.69504 -20.7045 3.71846 -20.4616 4.75567 -19.9446 5.52251 -19.396 
6.25458 -18.487 6.73333 -17.0653 6.82905 -15.8655 6.84549 -14.2682 6.53441 
-12.6835 6.17488 -10.7425 5.39658 -9.23757 4.65065 -7.42995 3.58802 -6.0084 
2.95195 -3.89125 1.98504 -2.66774 1.42279 -0.415154 0.805356 0.80505 0.618146 
2.84003 0.441774 4.03407 0.403134 6.13003 0.553636 7.29186 0.758747 9.16787 
1.13694 10.2884 1.38623 12.1396 1.96303 13.1714 2.26678 14.7345 2.87244 
15.8124 3.2506 16.9681 3.92355 18.0041 4.21828 19.1867 4.75259 20.0421 
4.85611 20.9524 5.27553 21.7447 5.34737 22.622 5.54752 23.2265 5.48677 
23.8345 5.47802 24.2328 5.36682 24.6795 5.20619 24.8528 4.93077 25.0515 
4.67856 25.1105 4.3358 24.9815 3.88321 24.8586 3.43261 24.4308 2.9885 
24.1767 2.48253 23.495 1.88259 22.974 1.27357 22.0964 0.75294 21.5222 
0.0965026 24.6257 4.41435 24.4579 4.84357 24.3675 3.82457 23.7944 4.89043 
24.1518 4.50051 23.6046 3.09655 22.7724 4.73242 23.5085 4.15122 22.468 
2.20692 21.4132 4.33 19.2002 0.049401 20.9849 1.18771 17.8546 2.85993 
19.771 3.70017 -19.1496 4.53384 10.1782 -0.305923 12.9945 0.689868 22.4685 
3.5829 15.9142 1.8411 -19.5018 3.35917 -18.3394 5.49215 12.5153 -3.32977 
14.8956 -2.42255 17.1076 -1.13114 1.73259 -5.02371 -4.29028 -4.34443 5.04831 
0.948772 6.94272 -0.985416 -1.3622 1.58248 11.0847 2.12374 -18.0675 1.87144 
-16.2588 5.12313 9.95 -4.16508 4.4968 -4.95384 -0.204549 -0.997945 -3.98435 
0.106309 7.64467 -4.70419 11.4412 0.924585 3.55336 -1.15249 -0.913475 -4.76093 
-10.4382 -2.55564 21.1437 2.8733 5.13972 -0.448122 -1.92227 -0.0211942 -17.9585 
3.62824 -16.0875 0.496655 -13.9282 4.33373 -7.26736 -3.64382 -7.65739 1.62711 
-13.4268 -1.20808 -10.943 3.0859 11.9907 -0.897462 19.6738 2.0942 -15.9808 
2.778 8.50578 -0.282809 9.18301 -2.07548 -5.66182 1.05584 1.75339 -0.967835 
5.21783 -2.63947 -2.069 -2.28344 13.7704 -0.970616 -6.12566 -1.30023 0.839452 
-2.95706 15.4554 -0.677892 16.4881 0.427529 -9.06214 -3.69338 -8.31987 -1.80149 
-5.8565 -4.56751 -5.34329 -2.96238 -15.1665 -0.968024 -14.1107 0.618218 -11.8401 
0.710646 -12.2535 -2.52801 -11.4162 -1.05221 -9.5765 0.246061 -12.1668 4.43791 
-12.8845 2.68611 -9.07011 2.81293 3.08438 -3.15845 6.14531 -4.27343 7.50549 
-2.93243 -7.51742 -0.134823 10.9632 -2.33803 -2.58688 -4.1093 -0.858139 -3.14101 
14.6466 0.753811 17.9384 1.16214 -14.4569 2.17991 -3.81224 -1.90866 -9.64124 
-5.89551 -9.58595 -5.11523 -10.5941 -5.39689 4.525 0.709761 4.48772 -0.0111112 
5.09044 0.359928 -11.0478 -4.54489 -11.5496 -5.27743 -12.5914 -4.87356 -12.2575 
-5.84668 -8.60426 -6.17606 -9.79941 -6.62652 5.60016 0.788691 6.09604 1.12227 
5.41356 1.32835 -6.04857 -5.96446 -6.69489 -6.56188 -5.57627 -6.75545 -5.08157 
-7.50426 -4.60032 -6.88664 -10.4798 -3.76374 -11.1859 -3.51192 -7.7051 -6.37069 
-7.77894 -5.54248 -7.19606 -4.78107 -7.89482 -4.61449 -7.39561 -7.16449 -3.18799 
1.63876 -3.93049 1.07821 -3.2065 0.822466 -9.71256 -4.1992 -9.68904 -3.16759 
-18.0995 -1.58723 -18.8343 -0.890452 -18.9481 -1.82997 -2.00844 1.53665 -1.65339 
2.06483 -2.45539 2.0196 -18.7031 3.40123 -18.6339 4.11493 -19.2719 4.01093 
-19.5608 -0.115427 -18.7024 0.0940482 -17.3634 -1.12473 -17.3715 -2.19529 -20.1221 
0.62648 -20.4739 -0.054017 -14.7555 -3.85493 -14.694 -4.7855 -13.7392 -4.36146 
-12.8573 -3.90349 -11.4215 -2.58614 -12.0687 -3.33747 -16.4762 -2.82347 -15.486 
-3.21286 -15.9154 -2.25723 -14.5503 -2.96265 -12.9466 4.4399 -12.3918 5.24313 
-13.2397 5.3589 -15.1536 -1.74609 -15.9567 -1.25013 -16.9765 -3.43243 6.44886 
-0.0880293 7.11706 -0.0305471 6.6231 0.623122 -14.7083 -0.245916 -14.3934 -1.07306 
-13.7294 -0.238678 -5.07407 -4.48604 -5.49443 -5.2964 -4.66393 -5.31656 5.75253 
-3.4919 6.67851 -3.48718 6.3769 -2.69468 -0.740252 -7.80187 -0.204066 -7.20132 
-1.11234 -7.16686 3.39679 -6.58754 4.37531 -5.99751 3.44574 -5.79937 0.821033 
-7.23672 0.509332 -6.55488 -2.84192 -7.06238 -2.86731 -7.6984 -1.90742 -7.13031 
1.71358 -7.25681 1.32617 -7.85242 2.70689 -1.11699 3.12564 -0.322077 2.27225 
-0.201495 4.22789 -7.24036 3.34618 -7.25323 3.36354 -7.85767 17.901 -1.49805 
18.6771 -1.01895 18.1806 -0.479217 2.47176 -7.10929 4.98939 -7.21438 4.77232 
-6.5612 5.39425 -7.79496 5.86237 -7.16112 2.344 -5.80878 1.4055 -6.00947 
1.90987 -6.59633 17.3322 -2.06249 16.5314 -2.31113 16.9613 -2.86595 14.2611 
-1.7384 15.2598 -1.38937 14.6596 -0.828352 5.09419 -5.65729 1.27624 -3.97259 
0.0362345 -3.91808 0.287172 -4.84669 -1.28648 -6.47425 -3.97307 -5.27943 -4.32538 
-6.17637 -1.50438 -5.56858 -0.681434 -5.69348 0.45831 -5.75339 -3.76278 -6.80668 
-2.9198 -6.26282 3.5371 0.401804 3.80948 -0.274137 5.1693 -1.45334 4.37718 
-0.899222 4.27982 -1.93634 4.63292 1.26844 3.98731 0.965537 3.34718 1.04382 
1.82651 0.530011 2.42747 1.08264 1.34845 1.18015 6.60759 -5.32687 7.33489 
-5.45276 6.94482 -4.41862 0.364608 -0.0921849 0.0982721 0.709724 -0.332668 0.0703277 
3.17445 -4.95812 2.36484 -2.06327 1.34187 -1.93607 1.95598 -3.05878 6.84622 
-7.07467 6.28563 -6.35327 -1.7257 -4.53312 -2.26313 -5.3494 6.72058 1.29 
-21.0887 2.66927 -20.5964 3.23749 -21.2009 3.35734 10.6617 1.79577 10.7774 
1.13382 11.2352 1.61712 -20.5912 4.20533 -21.0972 4.74707 -21.2048 4.0552 
-21.8019 3.64539 -20.8247 1.9241 -21.4493 1.80583 11.6188 2.08895 12.0219 
2.47573 11.3601 2.54342 -20.1749 3.63924 -19.9611 4.11708 -20.3501 1.33463 
-20.2282 2.17568 -20.8692 5.37418 -21.4903 5.34506 -19.5466 5.07219 -20.2606 
5.22725 -19.7896 4.62354 -20.0713 3.0019 -19.5905 1.16867 -20.4505 5.77642 
-19.708 5.88935 -20.1665 6.26591 -20.5346 6.7477 -19.6453 6.7075 -18.3409 
7.31809 -19.0292 7.72027 -19.0649 7.05772 -18.9323 6.45965 -18.7956 4.88641 
-19.2143 5.49459 21.2524 0.510819 20.5961 0.240937 21.0133 -0.176372 -18.815 
2.6604 -19.5845 2.46171 -19.0739 1.83546 -18.9308 5.93769 -18.3363 6.2069 
-17.0912 8.21326 -17.4875 7.48599 -16.6345 7.57814 -16.3712 6.84963 -15.8383 
7.40132 -15.2444 6.73109 -14.945 7.4606 21.8371 3.2441 21.9718 3.91215 
21.2704 3.60552 -14.8404 8.21726 -13.9589 7.31614 -17.8541 6.7795 -16.7727 
6.03163 -17.5994 6.10418 -17.3808 5.25753 20.0949 0.697548 19.914 -0.210769 
-18.0617 4.56607 15.8264 2.64156 16.8205 2.3042 16.6807 3.01831 -3.08431 
2.38203 -4.74071 1.56326 -4.81265 0.529933 -3.20647 3.15882 -4.03858 2.82265 
-5.16653 3.37129 -4.92427 2.4806 -0.841668 1.81951 -0.863268 1.21395 -0.239647 
1.36824 -6.77652 3.32147 -7.51739 2.6918 -6.79257 2.31507 0.425687 1.31393 
0.931727 1.82805 2.96684 1.63157 24.5059 4.14454 24.7023 3.87657 24.7708 
4.12086 24.3293 5.08068 24.5747 5.04746 24.4807 5.27973 23.443 5.16437 
23.7979 5.24775 23.6006 5.4838 4.99564 1.68309 -1.11998 2.32599 -1.67907 
-3.62952 -1.45358 -2.74922 -2.38165 -3.06654 24.0088 5.43703 24.0597 5.13 
-10.8735 6.36137 -12.0101 6.80234 -11.6904 5.85356 -14.073 5.50887 -15.084 
5.77226 -15.0545 4.69597 22.6014 4.17333 23.0306 3.89085 23.1535 4.38742 
-13.0447 7.12313 -12.4132 7.74208 -9.95642 6.82694 -9.85347 5.90122 -13.4615 
6.35823 -7.07088 4.20849 -6.14529 3.90242 -5.35071 4.29683 -8.19962 4.16236 
-7.95736 4.89686 -7.58975 5.59979 -8.9616 5.44627 24.3811 4.44037 24.2138 
4.22011 -10.0167 5.00364 23.8916 4.35837 23.9899 4.64995 23.6154 4.54325 
-10.314 1.68997 -9.33837 1.74055 -9.93075 2.88293 21.34 5.27959 21.159 
4.8839 21.6756 4.87814 24.2933 4.66885 24.1692 4.86745 -11.6298 3.86672 
-10.8354 4.35625 -11.5175 4.87525 -0.998368 0.443624 -1.06647 -0.524006 20.6422 
4.58535 20.5162 5.08208 7.01544 1.92689 7.6103 1.44239 -2.3629 0.799915 
-1.56244 0.950505 8.42909 -6.7116 7.81399 -6.28823 7.7169 -6.97561 7.42128 
-7.62238 9.59118 -3.05119 8.41928 -2.53229 8.70743 -3.48019 9.28211 -6.70209 
9.20111 -6.03111 10.1305 -6.51851 9.43059 -7.29723 9.29755 -0.341638 9.61495 
0.480619 8.81792 0.405882 11.6823 -6.0678 10.8637 -6.32401 11.391 -6.79392 
13.3077 -3.93093 12.6019 -4.44457 13.2686 -4.77769 13.2657 -6.11389 13.3653 
-5.43796 12.582 -5.75187 12.0581 -5.24166 10.4996 -5.73722 15.0515 -3.34011 
14.2073 -3.52461 14.5027 -4.2114 11.2737 -3.8324 10.7755 -4.83482 11.7257 
-4.5291 10.1224 1.90942 9.50071 1.83785 9.828 1.26239 7.8941 0.215973 
8.22952 0.9642 24.5296 4.647 8.6282 1.64452 9.00317 2.31253 10.651 
2.33532 12.5309 1.43274 11.869 1.48477 12.2152 0.763677 13.9569 -5.01261 
13.1554 1.46365 12.5762 2.1016 12.5503 -0.0752764 11.6854 0.0747572 15.6855 
-2.78015 15.9701 -1.80409 10.9207 2.79991 14.7466 -4.79569 13.739 -2.83683 
9.9937 -5.26775 12.566 2.72927 15.473 -4.41945 15.026 -5.28781 9.09549 
-5.24144 16.7652 -3.66469 16.083 -4.07102 16.663 -4.36519 -18.7385 1.08904 
17.9778 -2.23525 17.521 -3.20624 18.1655 -2.79161 18.1848 -3.39592 15.6212 
-3.63754 19.3025 -2.0335 19.0187 -1.5679 18.6252 -2.3315 19.894 -1.619 
20.3806 -1.2556 19.9421 -0.934977 19.5993 -2.41693 13.9748 2.53046 13.8736 
1.57061 14.6314 1.87886 20.9059 -1.44681 20.9229 -0.849831 15.0979 -0.0810991 
14.2245 -0.119319 15.6353 0.550663 16.2204 1.08132 15.3082 1.34641 19.4168 
-0.747538 21.5182 -0.402392 22.0907 -0.493032 22.015 -0.0032138 21.6603 1.00037 
21.8044 0.43104 22.339 0.405857 22.5606 1.02121 22.8443 0.693128 21.7214 
1.76067 22.2234 1.4082 23.5787 1.41093 23.2023 1.59086 23.2582 1.07435 
23.1299 0.438278 24.2652 2.15861 23.8645 2.23413 23.9149 1.77292 23.9993 
1.33867 24.6802 2.19621 24.5342 2.50354 23.0407 2.7078 23.072 2.09848 
23.4937 2.45744 12.8617 -1.02997 12.3092 -2.02274 13.2387 -2.02549 22.7729 
1.66906 20.6388 3.97719 20.5262 3.26819 22.4513 2.94873 23.0269 3.32924 
13.7528 0.669652 -17.9498 2.82335 24.1003 3.0638 23.9151 2.70796 24.3072 
2.74848 12.7376 3.35769 13.3341 2.99658 14.1931 3.31581 23.9311 3.96842 
14.9248 3.59035 14.4459 3.95417 15.5671 3.70248 15.2662 3.11968 23.3248 
4.7987 23.0421 5.13301 16.2043 4.09353 16.4245 3.60344 20.3315 1.65279 
19.4964 1.16179 17.4475 4.55587 16.8792 4.35281 17.4728 4.0172 20.0023 
4.3591 21.0855 2.10255 20.4394 2.50117 16.0546 4.54904 15.2108 2.2918 
18.6829 4.48401 18.7746 5.02712 18.0795 4.78231 17.5767 5.09584 19.8928 
5.25189 19.3774 5.21535 19.6178 4.79906 22.1386 4.506 19.0163 5.55109 
20.408 5.50212 22.2055 5.00872 22.6501 5.20238 22.2406 5.44079 21.4104 
5.69044 20.9524 5.6229 23.5244 3.67287 21.5941 6.07471 21.8984 5.75287 
22.4131 5.81056 22.8493 5.82479 22.6872 6.12483 18.8809 3.24081 18.7974 
3.90793 18.0551 3.59544 20.3624 5.88269 24.0046 3.50661 17.1248 0.721013 
16.9827 1.54955 24.9167 3.07846 24.6659 3.21033 24.6615 2.82067 24.381 
3.36328 24.9181 3.66253 24.6587 3.59984 25.0799 3.38968 25.1775 3.66332 
25.1617 2.99774 24.8805 4.33909 25.0453 4.13267 25.2496 3.94263 25.2952 
4.22795 25.2937 4.48427 25.2412 4.71047 25.0648 4.50566 24.8552 4.55531 
25.507 4.40023 25.3469 4.99581 25.1437 4.92951 25.439 3.73319 10.2281 
0.693122 24.7384 4.69743 24.6742 4.86875 23.5691 5.755 23.8788 5.66336 
17.3346 3.48061 23.6203 6.03872 23.2046 5.79659 24.1672 5.65458 22.9131 
5.49601 24.9991 5.07115 24.9016 5.25781 24.7949 5.07261 24.9483 4.81426 
24.436 5.5461 24.6945 5.41246 24.9605 5.4801 19.378 4.29937 24.3798 
5.82411 -17.9198 0.619419 21.7944 2.53491 -15.9519 6.17967 -16.5407 -0.631304 
-17.137 -0.0444024 -17.0318 1.16444 11.4754 -1.70453 11.6214 -2.8058 8.78759 
-1.09439 9.71985 -1.2836 5.786 -5.4019 5.73977 0.0776098 -3.16996 -5.24033 
-5.80237 2.0174 -6.507 -4.15736 -5.6252 -3.7897 -6.22977 -3.17462 8.09271 
-5.43528 8.58761 -4.45407 10.8686 0.316044 11.1054 -0.630777 1.24671 -0.117394 
3.8489 -4.0461 4.8822 -3.78062 4.15156 -3.01934 -2.01403 -1.23923 -1.21204 
-1.66514 -8.76732 -4.51407 -8.23849 -3.67061 -10.1588 4.01165 19.7405 2.90243 
3.34329 -2.13169 5.94182 -0.78977 -2.99876 -0.00798914 -4.92843 -1.50946 -5.69649 
-2.23874 -4.71433 -2.44587 -16.048 1.69573 -16.9951 2.25257 -17.1609 4.23417 
-14.3401 -2.00163 -13.687 -2.35279 -17.0154 3.20165 -16.0694 3.8942 -14.3427 
1.44281 -15.1878 1.39356 -15.0547 0.532039 -6.42217 -5.09631 -2.90037 -0.948441 
-2.82399 -2.08717 -9.24716 3.74177 -8.27638 3.25908 -8.74783 -2.82865 -7.7725 
-2.65616 -12.8134 -1.93022 -12.9816 -2.91316 -10.7607 0.589047 -11.3275 1.79544 
-15.0961 2.42814 -11.9494 2.84756 -12.374 1.75533 10.1537 -2.30249 10.6024 
-1.41207 18.8772 2.48439 17.9319 2.01944 18.8252 1.63818 -15.6199 -0.339068 
-14.996 3.55302 7.82851 -0.647048 10.6698 -3.17048 8.06745 -1.58469 7.65928 
-3.83432 -6.6841 1.37064 -9.3593 -2.05428 0.772061 -0.93991 0.386495 -1.94965 
5.38206 -4.52196 6.1145 -1.78634 -3.94262 -0.817105 -3.22583 -3.03872 16.1793 
-0.910023 13.3975 -0.131424 -5.84571 -0.0684902 -4.99901 -0.56054 -7.61751 0.670435 
-6.64791 0.398824 -0.50744 -2.22357 2.58451 -4.08178 16.8688 -0.177905 16.0234 
-0.145479 17.6863 0.116392 18.5886 0.635661 -6.77174 -2.43487 -7.30216 -1.63022 
-7.91009 -0.872955 -6.89123 -0.634843 -11.5237 -0.249838 -10.6075 -0.551179 -4.76962 
-3.50682 -4.00741 -3.16934 -3.52552 -4.16927 -12.6267 -0.218677 -13.0064 0.685926 
-12.4903 3.64594 -11.8622 -1.80495 -12.3067 -1.04464 -8.41592 2.14353 -8.56057 
0.981874 -10.9131 -1.63907 -8.93317 -0.930455 -9.95123 -1.23169 -8.40923 -0.0310912 
-13.3404 3.50215 -14.1856 3.1371 -13.4203 1.61647 7.21161 -2.03651 -0.92805 
-3.8727 -0.114051 -3.01567 -13.7322 2.4735 
FIELD FieldData 2
Radius 1 853 double
1.76622 1.64422 1.54115 1.46675 1.41407 1.42736 1.47209 1.53276 1.60124 
1.63366 1.62759 1.60251 1.57793 1.57787 1.61157 1.66154 1.70161 1.6507 
1.47481 1.17396 0.882848 0.610826 0.438394 0.413466 0.501332 0.651008 0.86038 
1.1914 1.56792 1.85365 2.03566 2.09248 2.00048 1.81144 1.5764 1.35045 
1.12023 0.869967 0.636347 0.450529 0.374499 0.417608 0.497001 0.557413 0.627963 
0.710395 0.761344 0.795003 0.825424 0.869875 0.923539 1.01323 1.12559 1.24631 
1.39334 1.564 1.72348 1.81824 1.85312 1.83771 1.73435 1.67605 1.55713 
1.52699 1.43401 1.39679 1.33209 1.3673 1.38302 1.45544 1.47172 1.53541 
1.5851 1.61704 1.59997 1.60238 1.57814 1.56938 1.58228 1.60446 1.65042 
1.70678 1.74281 1.72049 1.64181 1.52817 1.33321 1.04222 0.783535 0.634872 
0.496036 0.433724 0.471615 0.547451 0.605665 0.741348 0.957596 1.16707 1.39167 
1.70732 1.93885 2.06861 2.09683 2.04739 1.92348 1.79355 1.58541 1.44947 
1.28027 1.13977 0.927071 0.770532 0.599534 0.48423 0.417036 0.456792 0.525569 
0.587842 0.578333 0.65638 0.701878 0.781816 0.783071 0.83023 0.839114 0.878533 
0.89419 0.924423 0.964621 1.03131 1.08916 1.17652 1.29344 1.43525 1.51449 
1.63637 1.71655 1.7985 1.77318 1.80623 1.14468 1.01896 1.32235 0.990704 
1.12954 1.48182 0.980211 1.19355 1.5809 0.95434 1.46268 1.57279 0.789111 
0.885891 0.601132 0.698368 0.588242 1.24704 0.744818 0.58314 0.742469 1.15027 
1.21783 1.28509 1.5458 1.62588 1.01219 0.994099 1.69301 0.397282 0.883708 
1.10742 1.26724 1.51723 1.5352 1.81844 1.41403 0.515269 1.26313 1.55279 
1.80176 1.24462 1.09034 1.67556 0.829101 1.28755 1.49976 1.73042 2.03338 
1.6695 1.93241 0.774206 1.17372 1.17761 0.781235 0.97628 1.95049 1.40385 
1.28449 1.60344 0.88756 1.81706 1.50015 0.997013 0.945815 1.76915 1.84257 
1.65191 1.69653 1.49164 1.58599 1.79461 1.74321 1.80547 1.92562 1.79257 
1.70349 2.05211 1.42178 1.44735 1.23654 1.93609 0.957725 1.58788 1.55254 
0.709616 1.06028 1.46451 1.68653 1.70336 1.72834 1.72105 1.07631 1.11686 
1.03967 1.7377 1.70984 1.68431 1.68764 1.68015 1.68556 0.966257 0.890571 
0.957409 1.62433 1.62692 1.60461 1.59224 1.58803 1.76605 1.75788 1.65329 
1.67971 1.68298 1.71523 1.63551 1.85188 1.87579 1.80803 1.75664 1.7893 
1.10484 0.957572 1.02592 1.74518 1.73599 1.80638 0.705282 0.690425 0.594657 
0.822522 0.895144 1.19465 1.25173 0.70649 0.748198 1.57263 1.58581 1.63914 
1.68866 1.77397 1.73333 1.38863 1.50061 1.4476 1.58324 1.68057 1.75799 
1.614 1.51018 1.41742 1.32179 0.944928 0.862635 0.859645 1.5297 1.57411 
1.63575 1.63922 1.62737 1.61128 1.37377 1.34939 1.25241 1.58868 1.59206 
1.57995 1.60865 1.58455 1.57344 1.60564 1.59023 1.57194 1.57326 1.57261 
1.61576 1.6161 1.33646 1.26754 1.34393 1.62968 1.62841 1.63586 1.45856 
1.51857 1.36323 1.61839 1.61984 1.60476 1.62167 1.60201 1.5757 1.5834 
1.60279 1.45036 1.37628 1.47891 1.05075 1.09362 0.945853 1.5548 1.51376 
1.53176 1.54651 1.57071 1.59806 1.59055 1.56451 1.56355 1.56907 1.5779 
1.57406 1.20046 1.1924 1.16867 1.18105 1.26701 1.04359 1.12836 1.21054 
1.3654 1.30677 1.40272 1.50211 1.47733 1.42673 1.49219 1.52669 1.56021 
1.52968 1.40413 1.45716 1.46481 1.57757 1.56189 1.56477 1.57239 0.797912 
0.463593 0.459035 0.42513 0.433394 0.493143 0.436303 0.445674 0.431481 0.415077 
0.411175 0.530469 0.50002 0.398498 0.385934 0.378316 0.481155 0.507958 0.615482 
0.559041 0.467977 0.442613 0.568908 0.507592 0.532412 0.521908 0.706268 0.516091 
0.573607 0.555809 0.573027 0.617621 0.793391 0.744888 0.696654 0.669325 0.661463 
0.616303 1.72985 1.66738 1.77447 0.720521 0.614769 0.72283 0.651369 0.744003 
1.00371 0.914026 1.05467 1.08624 1.17897 1.24917 1.31814 1.25459 1.1068 
1.095 1.39462 1.48394 0.831244 1.01059 0.862075 0.90952 1.5097 1.62307 
0.793646 0.650263 0.772192 0.663638 1.88381 1.94393 1.88704 1.92008 1.9644 
2.03109 1.9921 1.65371 1.63756 1.5794 2.08336 2.07468 2.04859 1.49759 
1.45569 1.24429 1.22585 1.30764 1.2277 0.96715 0.982345 0.944931 0.928056 
0.921543 0.889252 0.992874 1.69574 1.56982 1.57389 1.5987 0.905512 0.948704 
1.90594 1.78765 1.83684 1.44414 1.27636 1.30209 1.10626 1.22502 1.09645 
1.64466 1.72201 1.95899 1.99699 1.55385 2.09992 2.0779 2.05899 2.09477 
2.0937 2.08151 2.05996 1.1419 1.20823 2.01597 1.15884 1.07182 1.08311 
1.94252 2.00489 2.01179 0.80869 0.838829 0.881405 1.07237 1.00835 1.86134 
1.9487 1.86563 1.62447 1.60068 0.849606 0.784066 0.742312 0.696535 1.74466 
1.6875 1.50963 1.50442 1.54637 1.57241 1.10742 1.11017 1.23831 1.49601 
1.4622 1.47118 1.50055 0.744016 0.628983 0.692509 1.4176 1.4415 1.44641 
1.26581 1.30162 1.34511 1.41588 1.39367 1.40392 1.36604 1.41882 1.33905 
1.28346 1.36224 1.19509 1.32956 1.29138 0.458702 0.519658 0.531445 0.769383 
0.680045 1.07703 0.602493 0.541483 0.40493 0.480324 0.453838 0.547098 1.3817 
0.514676 0.429562 0.675324 0.63068 1.34007 1.23985 0.388864 1.41083 1.16294 
1.39526 0.39677 1.43695 1.43842 1.4049 1.50107 1.46437 1.50053 0.821635 
1.53927 1.54446 1.58422 1.58714 1.40746 1.67542 1.61707 1.61192 1.72794 
1.76861 1.70038 1.71431 0.490946 0.55791 0.595455 1.80688 1.80491 0.871846 
0.79154 0.840489 0.851965 0.720673 1.6086 1.83261 1.85426 1.84038 1.70019 
1.79151 1.82627 1.7886 1.83447 1.5703 1.70042 1.78335 1.76288 1.81935 
1.84421 1.68337 1.67255 1.73661 1.77682 1.65615 1.61843 1.52728 1.66477 
1.61714 0.829915 0.941304 1.00206 1.7268 0.943054 1.06832 1.40453 1.37269 