# vtk DataFile Version 3.0
vtk output
ASCII
DATASET POLYDATA
POINTS 853 float
14.6273 -1.05735 30.3624 14.5844 -2.05846 30.1763 14.5742 -3.05411 30.0121 
14.5822 -4.05766 29.7915 14.5807 -5.12113 29.4854 14.5878 -6.18064 29.0232 
14.5625 -7.16728 28.3132 14.5019 -8.11997 27.3188 14.459 -8.99865 26.2058 
14.435 -9.79288 25.1903 14.4301 -10.608 24.2468 14.446 -11.4361 23.3776 
14.4734 -12.2827 22.4874 14.4672 -13.1394 21.484 14.425 -13.9378 20.4207 
14.4214 -14.6557 19.226 14.3426 -15.1898 18.003 14.1935 -15.5481 16.8011 
14.007 -15.7644 15.5841 13.6842 -15.9443 14.3908 13.2184 -16.0936 13.2871 
12.6936 -16.0239 12.2919 12.2136 -15.5325 11.5629 11.799 -14.5023 11.2046 
11.3533 -12.9536 11.1629 10.9314 -11.3306 11.3807 10.7294 -10.0285 11.8215 
10.8485 -9.0835 12.5007 11.1619 -8.38954 13.3914 11.2945 -7.76455 14.3713 
11.1274 -7.14813 15.3213 10.9715 -6.69319 16.2098 11.001 -6.41848 17.0406 
11.1172 -6.1654 17.851 11.2101 -5.80912 18.6517 11.2467 -5.27319 19.4023 
11.2842 -4.62408 20.1309 11.3686 -3.87392 20.9139 11.5227 -3.14947 21.7883 
11.6912 -2.46925 22.7484 11.8838 -1.72893 23.6927 12.1546 -0.981491 24.503 
12.4735 -0.221365 25.1488 12.7672 0.525461 25.6729 13.0222 1.25959 26.191 
13.2434 2.11647 26.6746 13.4156 3.07949 27.1287 13.5749 4.10401 27.6157 
13.7894 5.26984 28.1437 14.1082 6.69347 28.7208 14.5138 8.18896 29.3404 
14.9748 9.21401 30.0059 15.3945 9.40061 30.6113 15.627 8.67282 31.0258 
15.6533 7.04601 31.2079 15.5086 4.99001 31.2012 15.2845 3.28795 31.0822 
15.058 1.99729 30.8822 14.8471 0.911423 30.7148 14.6978 -0.0751314 30.5677 
14.5992 -0.666576 29.9422 14.5538 -1.3096 29.9182 14.5203 -2.13242 29.539 
14.5281 -2.6941 29.5634 14.5029 -3.5476 29.2608 14.5006 -4.21888 29.1792 
14.4383 -4.94227 28.7135 14.4669 -5.55564 28.6028 14.4136 -6.33887 27.9888 
14.4176 -7.01431 27.5342 14.3048 -7.55771 26.7327 14.282 -8.10519 26.112 
14.2386 -8.77553 25.2293 14.265 -9.35202 24.6536 14.1778 -9.80742 23.9121 
14.2246 -10.3962 23.4691 14.1766 -11.01 22.6991 14.1211 -11.5598 22.0323 
14.0748 -12.1042 21.2374 14.0537 -12.6608 20.7272 13.9745 -13.2733 19.8029 
13.8387 -13.6706 19.0793 13.7032 -14.0281 18.1358 13.5918 -14.3752 17.4562 
13.4087 -14.6612 16.4865 13.2111 -14.7106 15.8284 13.0873 -14.9591 14.9649 
12.8569 -15.0149 14.183 12.6006 -15.1938 13.3092 12.3215 -14.9248 12.8275 
12.0836 -14.8693 12.2423 11.8197 -14.3677 11.9294 11.5253 -13.5006 11.8103 
11.2487 -12.594 11.8407 10.9831 -11.7485 11.8634 10.7906 -10.9357 12.0893 
10.6788 -10.2423 12.649 10.6623 -9.76133 13.0995 10.7138 -9.34939 13.7819 
10.8531 -8.95077 14.4356 10.9689 -8.55508 15.2315 11.0922 -8.33769 15.8667 
11.1899 -8.0485 16.6011 11.3085 -7.80149 17.105 11.4493 -7.42138 17.8842 
11.5893 -7.33908 18.414 11.6962 -6.85279 19.2635 11.693 -6.52671 19.7336 
11.742 -5.9305 20.4393 11.7488 -5.59331 20.9135 11.8521 -4.86126 21.6915 
11.8953 -4.372 22.1475 12.0433 -3.73907 22.9047 12.104 -3.30977 23.4422 
12.2302 -2.53217 24.2534 12.3855 -2.05061 24.7146 12.5796 -1.31389 25.3235 
12.7457 -0.760791 25.704 12.8309 -0.0977523 26.012 13.0616 0.4386 26.3602 
13.2395 1.2082 26.7282 13.4446 1.67037 27.1005 13.5408 2.46461 27.3824 
13.7362 3.16225 27.7244 13.8853 4.21002 28.0907 14.0948 5.04321 28.4731 
14.2813 6.1484 28.8622 14.4771 6.9882 29.2013 14.7476 8.04082 29.6265 
14.9523 8.26092 29.9655 15.1678 8.52404 30.287 15.3208 8.20391 30.5712 
15.3566 7.094 30.7493 15.3623 5.94803 30.9052 15.2244 4.53261 30.7474 
15.1764 3.62243 30.777 14.9934 2.43195 30.5523 14.8731 1.66087 30.5371 
14.7377 0.801254 30.2053 14.6812 0.223105 30.2188 15.0275 7.04965 30.1508 
14.7873 7.13545 29.723 15.0327 5.4374 30.3635 14.4918 5.54962 29.2283 
14.7643 5.88081 29.7835 14.8651 3.36174 30.1827 14.1926 3.68674 28.6561 
14.6074 4.20219 29.5423 14.6556 1.64827 29.866 13.8992 2.05473 28.0643 
14.3627 -1.2841 29.0679 14.4782 0.156234 29.4802 13.3324 -0.625947 26.8482 
13.6107 0.660214 27.4633 11.3721 -12.7888 12.5094 12.8106 -4.53754 24.2491 
12.9193 -3.277 25.2674 14.4058 2.44311 29.1367 13.2082 -1.75379 26.3043 
11.7658 -13.8014 12.6604 11.0082 -11.6633 12.5973 14.1191 -5.2133 27.3477 
14.2512 -4.00146 28.147 14.2715 -2.70984 28.5427 13.7214 -9.36155 22.9986 
13.4372 -11.2449 20.5721 11.5795 -4.86917 20.9695 12.6233 -5.68379 23.0424 
11.4576 -6.69125 18.597 11.9644 -2.5938 23.5818 12.0369 -13.834 13.755 
10.9394 -10.9379 13.642 14.0459 -6.40584 26.4529 13.8175 -8.41714 24.0727 
12.3509 -7.88511 20.3755 12.0882 -8.65117 18.7989 13.9918 -7.25961 25.6473 
12.5142 -3.43969 24.3133 12.3827 -6.74585 21.6921 13.6121 -10.1984 21.935 
12.8795 -12.7816 17.8043 14.193 0.944507 28.6851 12.1872 -5.84226 21.8871 
12.0575 -7.9402 19.366 11.5072 -12.675 13.3413 12.2617 -13.5765 14.9575 
11.0465 -10.4949 14.8249 13.2163 -12.0593 19.2699 11.7766 -9.31933 17.3443 
12.5411 -13.3351 16.4107 11.406 -9.95661 16.1176 13.3443 -4.43437 25.563 
13.9998 -0.354281 28.2672 11.5484 -12.2479 14.5054 12.5219 -4.88445 23.3634 
13.3026 -5.77739 24.7302 11.8244 -8.76311 18.0209 12.3136 -7.18771 20.9838 
13.0892 -7.05094 23.248 12.8112 -9.2879 20.4472 13.6891 -3.94692 26.6041 
12.5231 -10.2643 18.8912 13.0153 -8.59199 21.734 13.8916 -3.28371 27.3773 
13.7445 -2.48731 27.3298 13.2516 -12.8586 18.5651 12.6427 -11.4334 18.3913 
13.5263 -12.0345 20.0599 12.956 -10.848 19.7843 12.6203 -13.938 15.6212 
12.0602 -12.6439 15.8056 11.9318 -11.5985 16.611 12.915 -13.5524 17.0807 
12.3893 -12.3616 17.1659 12.1104 -10.8601 17.3908 11.0428 -9.71131 15.3006 
11.4524 -10.9984 15.7386 11.478 -9.29501 16.6233 13.1263 -7.97907 22.6013 
13.7783 -7.5222 24.6682 13.4854 -6.56432 24.5397 12.2332 -10.2045 18.0544 
13.6257 -5.42037 25.8155 13.3871 -10.4641 21.0756 13.0682 -9.30225 21.2288 
13.2633 -2.79677 26.1175 13.8534 -1.60244 27.7719 11.6172 -11.9353 15.3144 
12.6761 -9.69121 19.8196 14.0962 -14.4473 18.6272 13.8045 -13.9473 18.5586 
13.9784 -14.5324 18.1246 11.6437 -5.21252 20.9102 11.948 -5.7461 21.3485 
11.8313 -5.30463 21.3561 13.6682 -14.2125 17.8286 13.9758 -14.8252 17.6791 
13.8917 -14.9869 17.1711 14.2589 -15.3846 17.4036 14.1457 -14.1995 19.152 
14.4029 -14.9532 18.6104 11.6984 -4.83138 21.305 11.6131 -4.41344 21.3305 
11.4663 -4.4435 20.8915 14.0267 -12.9944 20.2799 14.2212 -13.6498 20.0932 
14.2428 -13.2874 20.6333 14.433 -13.5429 20.9711 14.2785 -12.9577 21.0723 
13.3415 -13.5205 17.9767 13.2454 -13.6588 17.6502 14.194 -13.9571 19.5951 
13.8977 -13.4561 19.4485 13.6267 -12.7389 19.5592 13.5458 -12.9113 19.2381 
14.425 -14.3131 19.8346 11.5372 -7.38443 18.1914 11.7653 -8.03827 18.33 
11.8276 -7.93003 18.6108 13.4724 -13.4509 18.3697 13.0872 -12.8226 18.2091 
13.2614 -15.5289 14.248 13.0831 -15.5858 13.7762 13.4684 -16.031 13.8262 
11.5136 -6.99135 18.4886 11.3002 -6.45538 18.2762 11.3623 -6.82478 18.14 
11.6587 -13.2627 13.045 11.4349 -12.7473 12.8743 11.5458 -13.2208 12.5972 
12.8819 -15.634 13.2879 12.706 -15.0789 13.7164 12.9771 -14.9792 14.5847 
13.4035 -15.4733 14.6964 12.6834 -15.6188 12.8616 12.9521 -16.1013 12.7782 
13.726 -15.2407 16.0958 14.1157 -15.6739 16.1967 13.8077 -15.1356 16.6066 
13.515 -14.5602 16.965 12.8925 -13.2217 17.4264 13.2141 -13.9252 17.2536 
13.5312 -15.3897 15.1984 13.5492 -15.1884 15.7009 13.2061 -14.8956 15.4236 
13.3166 -14.7096 16.1156 11.0366 -10.0372 15.0906 10.9087 -9.35256 14.9137 
10.8748 -9.62604 14.6243 12.8963 -14.3285 15.7204 12.8235 -14.4216 15.3009 
13.8591 -15.8517 14.9763 12.1683 -5.23605 22.2418 12.2153 -5.00761 22.5376 
11.8726 -4.65856 21.8909 12.3489 -13.366 15.7149 12.5742 -13.6667 15.9764 
12.2691 -12.9416 16.123 13.4778 -11.6469 20.3376 13.7812 -12.3332 20.3742 
13.7828 -11.9989 20.6997 13.4849 -7.29575 24.0221 13.5976 -7.01639 24.5061 
13.2664 -6.74125 23.8573 14.459 -11.8554 22.9443 14.3385 -11.2754 23.0237 
14.337 -11.6415 22.6339 14.2215 -9.56283 24.285 14.1098 -8.94804 24.4802 
14.0204 -9.16437 23.9933 14.3364 -10.8796 23.4399 14.1872 -10.6238 23.1171 
14.3135 -12.3223 21.8559 14.4834 -12.7144 22.0004 14.3244 -11.9639 22.276 
14.3349 -10.5367 23.8049 14.4357 -11.0249 23.8016 12.3669 -6.97803 21.3746 
12.0475 -6.36631 21.0279 12.0067 -6.55067 20.675 14.3567 -9.57277 24.9054 
14.347 -9.90686 24.5005 14.4315 -10.1889 24.7188 14.4371 -2.3436 29.1421 
14.4554 -1.81182 29.3096 14.3074 -1.99553 28.7664 14.3106 -10.161 24.0788 
14.3614 -9.27145 25.2855 14.2444 -9.06244 24.9118 14.4435 -9.39977 25.6839 
14.3734 -8.92796 25.7275 13.9844 -9.54527 23.5607 14.0343 -9.98812 23.2764 
14.1935 -10.1065 23.6815 14.4545 -2.74568 29.1766 14.4128 -3.21015 28.9124 
14.5128 -3.07903 29.3969 13.9964 -4.06594 27.3556 14.0607 -3.58997 27.7017 
13.8041 -3.60255 27.0242 14.0445 -8.53126 24.7042 13.3602 -8.97587 22.3666 
13.3292 -9.38665 21.9136 13.6421 -9.78703 22.4061 14.1596 -11.32 22.354 
13.7863 -11.7033 20.9413 14.0916 -12.4055 21.0227 13.8742 -10.8879 21.9856 
13.9231 -10.6255 22.3616 13.9465 -10.21 22.8206 14.2723 -12.5607 21.3967 
14.0984 -11.8758 21.611 11.7498 -5.74541 20.7178 12.0273 -6.12823 21.252 
12.6101 -6.43784 22.5208 12.3159 -6.34724 21.8569 12.7297 -6.96722 22.4286 
11.4284 -4.72869 20.6031 11.5229 -5.17644 20.5375 11.4968 -5.31202 20.2372 
11.706 -6.20946 20.0759 11.4801 -5.58797 19.9053 11.4523 -5.91182 19.5376 
14.0574 -7.85078 25.399 14.1219 -7.6671 25.849 13.8765 -7.34248 25.1553 
11.9957 -7.15004 20.0298 11.7012 -6.72729 19.468 11.9686 -7.29967 19.721 
13.7487 -8.84703 23.5104 12.7232 -7.61611 21.7869 12.6717 -7.87144 21.3847 
13.0652 -8.27748 22.1561 14.3945 -8.54446 26.2309 14.2492 -8.41794 25.6468 
13.5313 -10.3832 21.5422 13.7944 -11.0599 21.6152 11.613 -4.08862 21.5443 
12.1621 -15.2072 11.9335 11.9282 -14.5936 12.1006 11.9908 -14.8934 11.7288 
12.0091 -2.92252 23.4747 12.2961 -3.40977 23.8408 12.1802 -2.96101 23.8819 
11.6807 -13.9737 11.8804 11.6374 -13.9366 11.4869 11.8204 -14.4693 11.5811 
12.0053 -15.0878 11.3389 12.3623 -15.4231 12.2211 12.4449 -15.8401 11.8775 
12.0812 -2.53171 23.9057 12.0477 -2.15081 23.9923 11.8987 -2.22313 23.577 
11.763 -14.0738 12.2393 11.6129 -13.6074 12.2293 12.4897 -15.4229 12.595 
[...]
POINT_DATA 853
VECTORS velocity double
1.00761 -2.9253 -0.329531 1.1723 -3.11484 -0.305655 1.2639 -3.13565 -0.136644 
1.29874 -3.00878 0.129332 1.27921 -2.75464 0.453745 1.20043 -2.42318 0.705148 
1.05606 -2.03021 0.752423 0.825014 -1.54234 0.648072 0.531365 -1.03736 0.605041 
0.23303 -0.62504 0.735897 -0.0519612 -0.325575 0.987104 -0.274252 -0.170333 1.24012 
-0.402743 -0.143324 1.38178 -0.403833 -0.227021 1.29805 -0.259239 -0.384429 0.96247 
0.0316928 -0.498139 0.501365 0.444922 -0.438759 0.201181 0.966984 -0.23478 0.148695 
1.56678 -0.00222092 0.254281 2.16835 0.0999421 0.364207 2.62608 0.00757179 0.385976 
2.77343 -0.168967 0.342016 2.47799 -0.190036 0.337297 1.59778 0.159829 0.472679 
0.0635008 0.958683 0.692664 -1.42928 1.72325 0.650411 -2.46573 2.00881 0.335834 
-3.10565 1.95003 0.0782732 -3.36419 1.78445 -0.0404883 -3.37929 1.77966 -0.199696 
-3.32102 2.08523 -0.516547 -3.0962 2.49251 -0.845989 -2.68594 2.76562 -1.05746 
-2.19144 2.91761 -1.20843 -1.69346 3.01238 -1.39122 -1.23637 3.10219 -1.67418 
-0.768022 3.09649 -1.98501 -0.260836 2.89367 -2.26277 0.239588 2.3441 -2.40196 
0.64408 1.50399 -2.42443 0.869903 0.614398 -2.37369 0.944978 -0.191211 -2.24771 
0.930764 -0.823432 -2.06558 0.88731 -1.27627 -1.85774 0.859007 -1.65376 -1.64482 
0.810031 -1.90187 -1.43016 0.741758 -2.02689 -1.22734 0.641519 -1.99497 -1.00494 
0.458924 -1.58604 -0.721231 0.157453 -0.337932 -0.367596 -0.207017 1.93204 0.0773016 
-0.476679 3.97814 0.72811 -0.592216 4.60085 1.42903 -0.576724 3.54339 1.74509 
-0.446697 0.860908 1.46067 -0.288214 -1.39309 1.0532 -0.0468826 -2.05742 0.677301 
0.250328 -2.24235 0.295905 0.538186 -2.42258 -0.0142989 0.787668 -2.65427 -0.219803 
1.044 -3.07128 -0.472264 1.15248 -3.19329 -0.485841 1.31964 -3.40464 -0.566012 
1.34417 -3.35972 -0.443032 1.3999 -3.28385 -0.343832 1.37814 -3.09094 -0.126158 
1.3605 -2.84601 -0.0709424 1.28546 -2.5892 0.163761 1.1716 -2.18464 0.19648 
1.03131 -1.83466 0.284289 0.867661 -1.4065 0.19146 0.681815 -1.04327 0.252138 
0.408114 -0.570881 0.400368 0.191911 -0.299407 0.603137 -0.0334949 0.0315844 0.806148 
-0.198701 0.129799 1.02088 -0.393903 0.316578 1.24071 -0.506337 0.392566 1.35828 
-0.555942 0.420041 1.35221 -0.509113 0.275152 1.25715 -0.367961 0.132117 0.982213 
-0.196837 0.0421556 0.751135 0.0750312 0.00296385 0.543937 0.365675 -0.0277069 0.440157 
0.789557 0.0459196 0.45927 1.0461 0.132773 0.562204 1.49532 0.179163 0.625683 
1.79023 0.197595 0.694344 2.13403 0.124366 0.654283 1.99878 0.141419 0.691159 
1.97807 0.101808 0.621636 1.50777 0.268447 0.679313 0.631072 0.667813 0.824955 
-0.276293 1.1157 0.933852 -1.05686 1.49777 0.904818 -1.72855 1.74038 0.80196 
-2.20562 1.75224 0.734169 -2.48265 1.69061 0.647229 -2.5973 1.54791 0.608698 
-2.64649 1.4704 0.50405 -2.5546 1.47759 0.348654 -2.36438 1.53642 0.242477 
-2.12706 1.6825 0.0702747 -1.95789 1.81793 -0.0698896 -1.65644 2.01126 -0.273138 
-1.3715 2.01079 -0.273779 -0.999422 2.08249 -0.499647 -0.78168 2.08273 -0.67054 
-0.409002 1.99774 -0.984089 -0.140725 1.83708 -1.16009 0.325597 1.46856 -1.54084 
0.582721 1.20287 -1.78311 0.952846 0.581732 -2.04634 1.14963 0.117089 -2.18152 
1.32003 -0.575525 -2.30537 1.35602 -0.998657 -2.30922 1.32099 -1.48329 -2.20806 
1.25721 -1.74621 -2.08102 1.1399 -1.83113 -1.91359 1.08147 -2.04145 -1.74542 
0.978021 -2.14002 -1.53065 0.93732 -2.29804 -1.35282 0.83106 -2.28493 -1.17515 
0.726465 -2.29234 -0.963072 0.561312 -2.10105 -0.721951 0.382664 -1.75591 -0.457656 
0.155743 -0.873826 -0.203495 -0.0426422 0.168185 0.0316846 -0.28857 1.8974 0.37541 
-0.394195 2.43316 0.695188 -0.486166 3.04217 1.02964 -0.494537 2.60334 1.25872 
-0.403114 0.803328 1.20569 -0.323237 -0.675475 1.09966 -0.159559 -1.81146 0.829087 
-0.0383977 -2.1141 0.666027 0.234843 -2.34531 0.308948 0.414 -2.42671 0.103523 
0.683832 -2.66565 -0.192941 0.808935 -2.76938 -0.289808 -0.297808 0.559781 0.786133 
-0.207343 0.5456 0.454551 -0.169783 -1.32089 0.768056 0.115754 -1.39297 0.0668326 
-0.0748193 -1.01648 0.451897 0.15746 -2.35466 0.373031 0.51057 -2.38007 -0.412544 
0.20159 -2.21108 0.17442 0.586462 -2.66841 -0.145728 0.867479 -2.64767 -0.919642 
1.34089 -3.5195 -0.863437 1.00222 -3.08335 -0.581412 1.41772 -2.8639 -1.79648 
1.15918 -2.80346 -1.37673 -0.063101 0.948661 1.12426 1.42867 -1.02982 -1.82069 
1.69104 -2.00833 -2.19569 0.602835 -2.67297 -0.318098 1.61782 -2.7809 -2.08693 
0.944084 0.512098 0.975409 -1.07457 1.3814 1.14326 1.42163 -2.54205 -0.751756 
1.53967 -3.24168 -0.836411 1.54672 -3.62078 -0.991323 -0.153593 0.58121 0.769019 
-0.666463 1.04603 1.31297 -0.131528 2.16642 -1.63411 0.847519 0.123296 -1.11975 
-1.45461 2.34883 -0.713374 1.06789 0.304497 -2.31792 0.90552 0.458416 1.10781 
-1.474 1.29591 1.27765 1.14061 -1.68161 -0.513414 0.281797 0.0185592 0.260244 
-0.481037 1.55443 0.259549 -0.935183 1.60312 0.537991 0.846245 -1.01904 -0.261039 
1.48481 -0.997068 -2.1783 0.125782 1.09468 -0.391159 -0.479823 0.934074 1.14422 
-0.274947 0.598351 0.936158 0.998577 -3.01137 -0.805771 0.355935 1.02722 -0.943138 
-0.815613 1.70993 0.210845 -0.135888 0.861828 1.32487 0.537796 0.445585 1.13173 
-1.46068 1.09922 1.29106 -0.581727 0.879999 1.14655 -1.23499 1.33684 0.781362 
0.159543 0.434799 0.954579 -1.37119 1.10477 1.07535 1.6387 -2.11598 -1.81265 
1.33041 -3.39086 -1.19289 -0.407838 0.795439 1.48195 1.11132 -0.181737 -1.57854 
1.2271 -1.08404 -1.20981 -1.16459 1.5319 0.535512 -0.204088 1.40955 -0.119762 
0.518663 0.237115 -0.364226 -0.605067 1.48933 0.905082 1.70834 -2.88659 -1.69158 
-0.784885 1.40952 1.09093 -0.259778 1.16946 0.592977 1.7049 -3.39139 -1.52302 
1.71313 -3.50502 -1.69153 -0.348867 0.538299 0.921465 -0.650527 1.10108 1.15484 
-0.608564 0.79042 1.24361 -0.710953 1.31032 1.22566 0.657633 0.325851 0.895527 
-0.139447 0.612953 1.27392 -0.606781 0.861312 1.28897 0.131821 0.333387 0.764221 
-0.341481 0.72644 1.10191 -0.799518 1.09212 1.18116 -1.78385 1.17916 0.987804 
-0.963223 0.928964 1.37976 -1.49778 1.26739 0.777826 0.086265 0.750368 0.214688 
0.642784 -0.454229 -0.208982 0.937954 -0.684738 -0.752703 -0.874039 1.30532 1.0589 
1.4186 -1.86167 -1.2743 -0.621366 1.1727 1.23484 -0.483107 1.32078 0.908491 
1.74928 -2.77554 -2.12099 1.59189 -3.60295 -1.51469 -0.537395 0.778099 1.46224 
-0.711871 1.51748 1.00644 0.0939959 -0.279784 0.458351 -0.0351096 -0.0228234 0.599788 
0.235286 -0.219886 0.387336 -0.153116 2.02578 -1.41673 0.100569 1.45394 -1.01739 
0.122668 1.59964 -1.29864 0.20828 -0.0278378 0.480028 0.448943 -0.240446 0.292108 
0.668488 -0.181628 0.268046 0.692147 -0.348127 0.148555 -0.0679896 -0.259572 0.611801 
0.225635 -0.493707 0.317638 0.088927 1.86339 -1.60268 0.0847389 2.07205 -1.85371 
-0.21764 2.51288 -1.92335 -0.448773 0.194191 1.13102 -0.302626 -0.148601 0.953051 
-0.398134 -0.0651545 1.1428 -0.350749 -0.30101 1.16174 -0.451192 0.00206858 1.26672 
-0.0609689 0.264032 0.706266 0.0529507 0.239589 0.670996 -0.187693 -0.218385 0.766479 
-0.295458 0.0966946 0.872086 -0.469523 0.491171 1.06282 -0.406714 0.445764 0.97817 
-0.130982 -0.456863 0.728887 -1.48578 2.00927 -0.266994 -1.22043 1.73464 0.166577 
-1.12005 1.76251 0.129369 -0.152032 0.255885 0.738575 -0.315295 0.571948 0.917387 
2.07095 0.132796 0.511872 2.26246 0.107336 0.526442 2.42578 0.0753648 0.386517 
-1.43229 2.18598 -0.508158 -1.75952 2.59122 -0.935964 -1.71976 2.34939 -0.673712 
0.406828 0.692709 1.17102 -0.0881928 0.911648 1.2207 0.363232 0.753186 1.08416 
2.42307 0.0524949 0.517839 1.96192 0.17418 0.694607 1.63947 0.19664 0.668891 
1.86902 0.128901 0.480072 2.49734 -0.00515154 0.50115 2.74689 -0.082872 0.368681 
1.17744 -0.0184129 0.32993 1.26062 -0.113249 0.189408 0.930676 -0.0988955 0.285209 
0.585937 -0.00628863 0.424119 -0.0650557 0.437175 0.833626 0.246308 0.177482 0.611802 
1.62145 0.0971572 0.433457 1.323 0.0590351 0.415033 1.29167 0.146831 0.570587 
0.942967 0.0921386 0.50744 -1.66021 1.14053 1.12788 -2.16797 1.30103 0.78639 
-2.09724 1.29409 0.903587 0.86896 0.229308 0.728104 1.0508 0.247673 0.771619 
1.87635 0.0734684 0.318834 0.596683 0.829124 -1.30818 0.7581 0.598928 -1.44664 
0.440867 1.35391 -1.64351 0.285984 0.451996 1.08103 0.417551 0.367262 0.925165 
-0.00263996 0.542039 1.13554 -0.649291 0.926588 1.29893 -0.565686 0.558778 1.25108 
-0.601547 0.654572 1.31833 0.605338 -0.156118 -0.309168 0.780418 -0.512537 -0.489855 
0.756234 -0.215941 -0.610052 -0.351897 -0.142182 1.33192 -0.339422 0.0593902 1.25095 
-0.409331 0.089242 1.33217 0.0822278 -0.129131 0.693956 0.235034 -0.185097 0.461968 
0.0937755 0.0667354 0.578575 -0.241611 -0.00170271 1.13388 -0.291325 0.243395 1.11806 
-0.478444 0.0859542 1.38134 -0.421024 -0.173492 1.37328 -0.453251 0.0979563 1.37566 
-0.140269 -0.0814453 1.01599 -0.174551 -0.229098 1.12215 -0.031541 1.24944 -0.243465 
-0.101114 1.50165 -0.633115 -0.278738 1.64351 -0.535623 0.206673 -0.452168 0.670131 
0.0769422 -0.29538 0.785239 0.0889072 -0.461816 0.850408 1.4179 -3.53632 -0.72923 
1.34573 -3.4895 -0.717171 1.47407 -3.64325 -0.976296 -0.0437334 -0.12792 0.891035 
0.327248 -0.613569 0.58121 0.294313 -0.41349 0.497822 0.381344 -0.817526 0.650661 
0.463524 -0.814235 0.503915 -0.0671518 0.26194 0.762038 -0.193962 0.332898 0.936678 
-0.122381 0.092973 0.919843 1.42463 -3.48275 -0.628972 1.47261 -3.45278 -0.650681 
1.38317 -3.35661 -0.423346 1.62938 -3.10401 -1.27914 1.64273 -3.36358 -1.25251 
1.71578 -3.18103 -1.61426 0.370642 -0.310775 0.284831 -0.208589 0.912507 0.697938 
-0.375588 1.08084 0.899157 -0.344658 0.813272 0.984687 -0.459949 0.354979 1.31612 
-0.615646 0.729883 1.34517 -0.534743 0.328203 1.31767 -0.514829 0.695614 1.28166 
-0.438811 0.617015 1.20424 -0.315112 0.515521 1.05637 -0.491132 0.119238 1.34055 
-0.542558 0.408233 1.37423 -0.252137 1.90535 -1.07853 0.0238661 1.42275 -0.777654 
0.487219 0.579733 -0.628944 0.262548 1.00694 -0.636865 0.320271 0.700092 -0.313915 
-0.40103 2.59847 -1.80219 -0.403817 2.35476 -1.50602 -0.595112 2.49348 -1.46348 
-0.610342 2.0745 -0.842783 -0.794892 2.53643 -1.32614 -1.00572 2.5318 -1.15704 
0.652362 -0.751781 0.00728795 0.755827 -1.00347 -0.00980058 0.766601 -0.755363 -0.283344 
-0.583694 1.75221 -0.206885 -0.904928 2.08173 -0.562227 -0.713498 1.79585 -0.140634 
0.0619613 0.339143 0.504064 -0.0294169 1.08629 0.104267 -0.193834 1.26072 0.261279 
-0.0950259 0.98428 0.410783 0.610286 -1.055 0.45557 0.550171 -0.793085 0.298186 
-0.556543 1.04046 1.20972 -0.571609 0.78329 1.32163 0.199739 2.03483 -2.00291 
2.26097 -0.0422805 0.479264 1.72548 0.188506 0.664267 1.99102 0.041836 0.511203 
1.09637 0.267669 -2.26839 1.32312 -0.42239 -2.1664 1.27282 -0.28616 -2.25731 
1.11492 0.441257 0.754305 1.06401 0.447611 0.656056 1.59443 0.202218 0.571655 
2.12477 -0.0718764 0.384643 2.42738 -0.0620467 0.474088 2.68732 -0.214947 0.325687 
1.18841 -0.105917 -2.31293 1.12152 -0.0301789 -2.33663 0.968024 0.512701 -2.36027 
1.21951 0.404242 0.820888 0.748774 0.60702 0.919313 2.40555 -0.00655099 0.525438 
2.03194 0.10802 0.645831 0.449016 0.757222 0.743217 0.889588 0.514652 0.59132 
-0.19838 1.04873 1.03446 0.142991 0.908813 0.88198 0.271268 0.826036 0.985796 
1.53277 0.283999 0.783942 2.07934 0.128494 0.677056 -0.13275 1.0598 0.826148 
-0.663295 1.30989 0.934377 -0.646 1.32818 0.827123 -0.739345 1.39219 0.719527 
-1.20258 1.59477 0.793861 -2.07297 1.87879 0.605253 -2.00082 1.92379 0.505716 
-1.66557 1.77568 0.710756 -1.39746 1.62923 0.878243 -0.491662 1.13088 1.17387 
-0.669236 1.26959 1.05334 0.895631 -2.91534 -0.404715 1.04822 -3.11811 -0.548402 
0.925231 -2.91656 -0.390142 0.922654 0.493654 1.06471 1.51038 0.301344 0.846643 
1.50764 0.301541 0.886833 -1.09027 1.46703 1.00393 -1.4963 1.60396 0.96372 
-2.83433 2.00862 0.184503 -2.41746 1.90618 0.497292 -2.68038 1.88292 0.402383 
-2.38231 1.721 0.683709 -2.76613 1.79999 0.41543 -2.53701 1.6307 0.639773 
-2.96038 1.75848 0.307974 0.80566 -2.83 -0.570823 0.758354 -2.7143 -0.620257 
0.943554 -2.85463 -0.868071 -3.27821 1.86378 0.0112517 -3.05276 1.69124 0.253557 
-1.96298 1.763 0.779884 -1.85534 1.54645 1.01779 -1.67596 1.58565 1.00916 
-1.26921 1.34689 1.24418 1.19711 -3.33732 -0.767679 1.17321 -3.28365 -0.634809 
-0.641212 1.11783 1.2954 1.43367 -2.20544 -2.11039 1.53708 -2.85862 -1.96686 
1.37005 -2.32134 -1.99362 -1.94492 2.40879 -0.724444 -1.39252 1.72479 0.145992 
-1.03895 1.57197 0.541998 -2.4568 2.87079 -1.15055 -2.15215 2.35412 -0.666755 
-2.33987 2.22799 -0.548264 -1.83599 1.94027 -0.200931 -1.59245 2.63708 -1.01964 
-1.23138 2.23456 -0.626533 -1.28001 2.44106 -0.886519 -2.07279 1.75529 -0.010289 
-1.64871 1.47083 0.437756 -1.55165 1.52087 0.394266 -1.18464 2.50853 -1.01901 
-1.45842 3.05779 -1.522 -1.01022 3.12254 -1.83185 -0.234869 -0.463481 0.789457 
-0.301675 -0.315256 0.981889 -0.345451 0.523974 0.991523 -0.12538 0.313228 0.243667 
-0.253674 1.30799 0.4086 -0.179407 1.06966 0.208475 0.280722 -1.70864 -0.226964 
0.144863 -1.09352 -0.105069 0.248846 -1.29874 -0.300739 -0.524908 3.03658 -2.13616 
-1.93903 2.96287 -1.2848 -0.562418 1.27137 1.09255 -0.545324 1.41447 0.917884 
-0.619765 1.3934 1.08057 0.0761563 -0.49002 -0.110173 0.0145017 -0.55267 0.0766482 
-3.04859 1.65859 0.0351885 -3.08446 1.62698 0.135277 -2.63903 1.46795 0.41315 
-2.05179 1.32392 0.977741 -2.03894 1.40927 1.00073 -1.4663 1.16972 1.32105 
0.562303 -2.56854 -0.361271 0.396424 -2.50081 -0.0597716 0.361101 -2.34357 -0.105061 
-3.08974 1.64585 0.201804 -3.38819 1.74653 -0.103116 -3.35786 1.89702 -0.339782 
-2.98657 1.72941 -0.0717246 -2.62929 1.49655 0.564776 -2.55505 1.96648 -0.301531 
-2.51895 2.13488 -0.468629 -2.89422 2.63249 -0.950324 -2.2945 1.64218 0.101529 
-2.77788 1.91885 -0.273414 -3.24505 2.30362 -0.699921 -2.89331 1.80741 -0.160423 
-0.182323 -0.390667 0.60991 -0.108518 -1.20259 0.586179 -2.44404 1.49004 0.315242 
0.0382412 -1.6847 0.349375 0.00799007 -1.22691 0.290154 0.172051 -1.92252 0.116996 
-1.02205 1.07347 1.16776 -1.13247 1.16816 1.03575 -1.41985 1.17867 0.937352 
0.790221 -2.31238 -1.07479 0.854347 -2.44683 -1.07892 0.775695 -2.46378 -0.909812 
-0.135261 -0.347008 0.454899 -0.0628126 -0.488041 0.27713 -1.59973 1.13593 1.03142 
-1.95943 1.27102 0.734209 -2.1228 1.29705 0.71811 -0.893827 1.87922 -0.178227 
-0.644599 1.64846 0.24696 0.942585 -2.51113 -1.19162 0.882753 -2.29612 -1.25823 
-0.00237538 2.66644 -2.3555 0.401296 1.79995 -2.11171 -1.09421 1.85359 -0.0468143 
-1.13009 2.00271 -0.304645 0.844927 -1.47104 0.409164 0.779897 -1.24464 0.242567 
0.739034 -1.28805 0.447545 0.679345 -1.27912 0.605357 1.19907 -1.40759 -0.94111 
1.09082 -0.906421 -0.982329 1.05894 -1.17959 -0.728165 0.944343 -1.7086 0.485989 
0.955556 -1.62735 0.226285 1.03819 -1.92798 0.514141 0.954016 -1.80187 0.709498 
1.2707 -0.590362 -1.68081 1.22776 -0.248566 -1.9201 1.06693 0.123953 -1.80565 
1.18211 -2.31171 0.488345 1.1128 -2.11567 0.515219 1.13762 -2.23625 0.75412 
1.39274 -2.77705 -0.351 1.32425 -2.57373 -0.168046 1.3243 -2.71457 0.0482596 
1.24642 -2.59337 0.604253 1.28326 -2.67294 0.342446 1.24144 -2.50909 0.430859 
1.24402 -2.41596 0.157609 1.1001 -1.99034 0.228515 1.44031 -3.17292 -0.399195 
1.4381 -3.01085 -0.42872 1.37613 -2.98626 -0.098022 1.29083 -2.11947 -0.612915 
1.17338 -2.02441 -0.165161 1.2693 -2.31646 -0.22609 0.928662 0.749261 -2.2834 
0.791266 1.09903 -2.26177 1.07968 0.294491 -2.12521 0.896086 0.433106 -1.64245 
0.765355 0.942574 -1.93373 -0.251062 0.554333 0.610119 0.618061 1.45303 -2.19983 
0.459064 1.9468 -2.42131 0.890594 0.821058 -2.3568 1.52248 -1.26631 -2.27543 
1.41958 -0.813411 -2.26341 1.61149 -1.54631 -2.19316 1.31971 -2.81282 0.187238 
1.57856 -1.61866 -2.28366 1.33783 -0.749427 -2.31454 1.70093 -2.13558 -2.04419 
1.61883 -1.64229 -2.05032 1.47443 -3.32648 -0.570468 1.56338 -3.46808 -0.934302 
0.774613 1.07099 -2.41029 1.32989 -2.93784 0.1345 1.50731 -2.9364 -0.832933 
1.07106 -1.80117 -0.0235251 1.11288 -0.184771 -2.32925 1.33886 -3.05487 0.0164259 
1.29601 -2.8971 0.286538 0.979483 -1.51698 -0.09102 1.33183 -3.2167 -0.205706 
1.34113 -3.14395 -0.0966473 1.28861 -3.09035 -0.0144442 1.63548 0.259185 0.846257 
1.33795 -3.39314 -0.513415 1.3031 -3.25324 -0.295358 1.2676 -3.25606 -0.360868 
1.22432 -3.14157 -0.232771 1.39571 -3.19152 -0.24618 1.16047 -3.16079 -0.412315 
1.24052 -3.31366 -0.53238 1.2468 -3.2702 -0.431358 1.08127 -3.0623 -0.402555 
1.01246 -2.97915 -0.387139 1.1132 -3.15609 -0.496294 1.09868 -3.03914 -0.337959 
1.36008 -1.29277 -2.27331 1.60794 -1.95074 -2.27352 1.58278 -2.15249 -2.23794 
0.903384 -2.79262 -0.289284 0.919741 -2.86327 -0.34131 1.75547 -3.21243 -1.8219 
1.76296 -2.89847 -1.94342 1.74994 -3.23663 -1.91677 1.71029 -3.26152 -1.92398 
1.69271 -2.79142 -2.12976 1.2287 -3.34058 -0.622537 0.797224 -2.71469 -0.254045 
0.663855 -2.52515 -0.125297 0.686871 -2.60082 -0.163737 0.809592 -2.83291 -0.344237 
0.752372 -2.72239 -0.250224 0.611532 -2.54941 -0.101015 0.546452 -2.53417 -0.0457788 
0.467121 -2.41913 0.0506103 0.816661 -2.87514 -0.406036 0.653039 -2.67981 -0.18456 
0.22679 -2.28322 0.324158 0.338654 -2.39732 0.186912 0.336749 -2.33678 0.195323 
0.399215 -2.32798 0.126793 -0.0460284 -2.08903 0.678273 0.0887403 -2.2497 0.495032 
0.0975114 -2.2121 0.485828 0.099408 -2.16276 0.482299 -0.17915 -1.85284 0.869652 
-0.160968 -1.88539 0.842758 0.384393 -2.53494 0.0869867 0.37542 -2.48184 0.127403 
0.216519 -2.38458 0.321118 1.68143 -2.52755 -1.75289 1.55895 -2.40485 -1.39159 
1.59364 -2.77099 -1.30544 0.476182 -2.52591 0.0191756 1.02382 -2.75481 -1.14046 
1.11358 -3.0063 -1.09549 0.60423 -2.7039 -0.23472 0.391442 -2.54885 0.0245457 
1.73447 -2.39993 -2.1756 0.336722 0.659511 1.26545 -0.0412614 -2.08278 0.652245 
0.0462502 -2.23059 0.544161 -0.102191 -1.99705 0.751768 0.917862 0.197747 -2.31825 
1.12591 -0.487666 -2.29051 1.12506 -0.806534 -2.22362 0.0123372 -1.90326 0.476852 
1.10451 -1.05032 -2.1476 0.951308 -0.538424 -2.16454 1.11018 -1.30983 -2.07676 
1.2698 -1.57671 -2.14435 0.30909 -2.05861 -0.142606 0.428103 -2.08511 -0.408483 
1.04472 -1.37862 -1.98687 1.19753 -1.79658 -1.99626 1.19044 -3.30754 -0.885442 
1.35326 -3.51257 -1.04966 0.984541 -1.65723 -1.80549 1.01526 -1.53761 -1.89312 
1.12733 -1.97197 -1.83876 1.02575 -2.51351 -1.34759 1.01201 -3.08721 -0.699785 
1.1706 -3.20394 -1.00713 0.900982 -1.04848 -1.96119 1.50449 -2.16341 -2.18555 
1.03117 -2.12401 -1.62463 0.923632 -1.9078 -1.5919 0.953427 -1.78095 -1.70457 
0.87456 -1.48058 -1.75184 0.879708 -2.10986 -1.39404 0.894561 -2.00366 -1.48938 
0.962363 -2.22965 -1.445 0.697216 -2.56121 -0.656586 0.839795 -1.79687 -1.53827 
0.829036 -2.12046 -1.30373 0.660141 -2.39216 -0.733338 0.549732 -2.23285 -0.606545 
0.639694 -2.2266 -0.823411 0.741944 -2.16538 -1.10753 0.787086 -2.15593 -1.20324 
0.187263 -2.33222 0.275314 0.699363 -2.0421 -1.12151 0.683801 -2.14308 -0.996382 
0.606517 -2.05847 -0.865028 0.519052 -1.89899 -0.731959 0.563124 -1.85757 -0.872376 
1.30296 -2.90024 -1.58146 1.16317 -2.4847 -1.61474 1.24353 -2.44964 -1.76244 
0.774865 -1.97202 -1.32764 -0.0157084 -2.04179 0.58324 1.67032 -3.58107 -1.6194 
1.64436 -3.31071 -1.84585 -0.315595 -1.00174 1.10198 -0.250126 -1.35713 0.968916 
-0.224634 -1.63302 0.938514 -0.159836 -1.68441 0.809166 -0.359905 -0.0337447 1.15441 
-0.269537 -0.944024 0.97256 -0.383561 -0.0504873 1.25259 -0.440163 1.01483 1.37873 
-0.37261 -0.480009 1.24296 -0.407458 1.55965 1.02923 -0.452598 1.77875 1.24252 
-0.497417 2.15127 1.47507 -0.542478 3.12942 1.4911 -0.558373 3.69511 1.39258 
-0.545202 3.86074 1.20301 -0.489364 2.79349 1.14163 -0.406983 1.923 0.91439 
-0.601043 4.29691 1.65876 -0.551424 4.48473 1.10052 -0.503421 3.6906 0.950429 
-0.5201 2.33427 1.6627 1.31571 -0.443502 -2.04032 -0.351553 1.59155 0.739439 
-0.314334 1.53884 0.589408 0.297323 -1.24288 -0.441511 0.165554 -0.709692 -0.279488 
1.26972 -2.26813 -1.88627 0.324194 -1.11058 -0.552142 0.422027 -1.65971 -0.596414 
0.0385154 0.0360012 -0.160043 0.484973 -1.99385 -0.595335 -0.441376 3.19916 0.718161 
-0.379505 2.871 0.498488 -0.357664 2.31812 0.55115 -0.440509 2.7354 0.850029 
-0.111323 0.950183 0.0223867 -0.260802 1.99196 0.246502 -0.361858 3.09225 0.3741 
1.06567 -2.41213 -1.49443 -0.0271518 0.724247 -0.163989 1.36531 0.308442 0.915012 