# vtk DataFile Version 3.0
vtk output
ASCII
DATASET POLYDATA
POINTS 853 float
14.4169 -0.416483 30.4467 14.3398 -1.38328 30.2595 14.3091 -2.37728 30.0625 
14.3075 -3.40945 29.786 14.3075 -4.52977 29.4079 14.3295 -5.66387 28.8855 
14.3341 -6.73755 28.1556 14.3235 -7.79557 27.1737 14.3454 -8.7816 26.0672 
14.3869 -9.66288 25.0263 14.444 -10.5413 24.0316 14.5078 -11.4027 23.109 
14.5625 -12.2553 22.1884 14.5566 -13.0944 21.2015 14.4854 -13.8603 20.2058 
14.4233 -14.5543 19.1065 14.2606 -15.0997 17.9513 14.0026 -15.5008 16.7677 
13.6877 -15.7677 15.5319 13.2343 -15.9701 14.3137 12.6697 -16.0999 13.2009 
12.1137 -15.9953 12.2101 11.6952 -15.5052 11.4792 11.4584 -14.5553 11.0934 
11.3232 -13.1757 11.0095 11.2182 -11.7126 11.2316 11.2476 -10.4735 11.7294 
11.5158 -9.51813 12.4627 11.8958 -8.79197 13.3852 12.0375 -8.17258 14.403 
11.8555 -7.63002 15.4195 11.6474 -7.26987 16.3779 11.5899 -7.06027 17.2567 
11.6042 -6.84533 18.1047 11.5925 -6.51187 18.9509 11.5284 -5.99105 19.7687 
11.4599 -5.33062 20.5717 11.4286 -4.5223 21.4235 11.4705 -3.66743 22.3358 
11.551 -2.79748 23.3023 11.6975 -1.85519 24.231 11.9564 -0.923633 25.0072 
12.2811 -0.0174636 25.6074 12.5848 0.833518 26.0812 12.8459 1.65117 26.5483 
13.0777 2.55983 26.9806 13.2659 3.54039 27.3861 13.4499 4.53625 27.8209 
13.7084 5.57732 28.2822 14.0965 6.69524 28.7707 14.5784 7.71841 29.279 
15.0932 8.35269 29.8057 15.5384 8.42037 30.2756 15.7711 7.88713 30.6231 
15.7705 6.76823 30.8473 15.5805 5.22006 30.9444 15.2974 3.72232 30.9284 
15.0054 2.49766 30.8199 14.7333 1.45608 30.7241 14.5323 0.515281 30.6249 
14.3826 0.00671475 30.0542 14.3145 -0.614995 30.0359 14.2463 -1.39818 29.6754 
14.2477 -1.9704 29.6758 14.2083 -2.84151 29.3517 14.2081 -3.5547 29.2233 
14.1468 -4.3329 28.7398 14.1899 -5.00274 28.5764 14.1596 -5.8755 27.9459 
14.1938 -6.62723 27.4668 14.1173 -7.26351 26.6786 14.1362 -7.88865 26.044 
14.154 -8.65903 25.1317 14.2278 -9.29187 24.5158 14.19 -9.81641 23.7332 
14.2718 -10.4248 23.246 14.2654 -11.0767 22.4299 14.2333 -11.6414 21.7388 
14.197 -12.1906 20.9458 14.1658 -12.7174 20.455 14.0578 -13.3016 19.587 
13.8872 -13.6818 18.9114 13.6958 -14.0336 18.0136 13.5237 -14.3756 17.3582 
13.2499 -14.6791 16.3882 12.9956 -14.7488 15.7092 12.7747 -15.008 14.8319 
12.4798 -15.0686 14.0336 12.1505 -15.2318 13.1654 11.8984 -14.9693 12.6745 
11.6646 -14.9068 12.102 11.4954 -14.4435 11.7774 11.3783 -13.6629 11.6303 
11.2901 -12.8509 11.6397 11.1915 -12.0855 11.6664 11.1485 -11.3254 11.9097 
11.1501 -10.6379 12.4825 11.2018 -10.146 12.9521 11.289 -9.70703 13.647 
11.4475 -9.29602 14.3267 11.5497 -8.90882 15.1589 11.6357 -8.71054 15.8191 
11.6841 -8.46067 16.5921 11.7672 -8.24812 17.1268 11.844 -7.91659 17.9514 
11.9245 -7.83676 18.4842 11.9505 -7.37085 19.386 11.8985 -7.04677 19.8954 
11.8631 -6.43341 20.6725 11.8084 -6.0606 21.1871 11.8036 -5.24377 22.0497 
11.7862 -4.69055 22.5583 11.8495 -3.91374 23.3689 11.8663 -3.37628 23.9314 
11.9566 -2.43408 24.7624 12.1061 -1.85181 25.2205 12.3094 -0.996144 25.8044 
12.4892 -0.376535 26.1564 12.5977 0.315807 26.4289 12.8404 0.902696 26.739 
13.0391 1.69878 27.0586 13.2531 2.19429 27.3902 13.3723 2.98283 27.6308 
13.5918 3.67207 27.9236 13.7795 4.65363 28.2336 14.0307 5.38279 28.5542 
14.2698 6.26482 28.8791 14.5095 6.87047 29.1581 14.8307 7.57295 29.5006 
15.0573 7.68862 29.7714 15.2917 7.83576 30.0246 15.448 7.59538 30.261 
15.465 6.82932 30.4455 15.4483 5.99754 30.6292 15.2677 4.87036 30.548 
15.1896 4.05935 30.6228 14.9461 2.94956 30.4841 14.7867 2.20485 30.5175 
14.5952 1.39788 30.2523 14.5124 0.839361 30.289 15.1139 6.83812 29.9394 
14.8548 6.9318 29.5843 15.0845 5.6399 30.1692 14.4865 5.78066 29.19 
14.7999 6.01375 29.6562 14.838 3.86125 30.0946 14.0963 4.19454 28.7345 
14.5766 4.64767 29.4913 14.5353 2.24485 29.8984 13.7236 2.64779 28.2585 
14.0868 -0.524106 29.2615 14.2715 0.836885 29.6108 13.0443 -0.00566696 27.2316 
13.3741 1.28313 27.7588 11.3715 -13.0131 12.2711 12.5143 -4.36415 24.6375 
12.5698 -2.87875 25.7305 14.2856 3.03464 29.201 12.8793 -1.16765 26.7448 
11.5559 -13.9311 12.4505 11.2278 -11.9804 12.3544 13.8136 -4.67591 27.5007 
13.9254 -3.30884 28.3302 13.9502 -1.9348 28.7627 13.7637 -9.49037 22.8283 
13.586 -11.4626 20.2922 11.6284 -5.39636 21.3462 12.4596 -5.768 23.289 
11.8049 -7.26402 18.759 11.7405 -2.68113 24.1038 11.8379 -13.9515 13.5194 
11.2642 -11.2421 13.3739 13.8004 -6.05724 26.5457 13.7654 -8.43187 24.0053 
12.4876 -8.26519 20.3329 12.3263 -9.03702 18.6966 13.8124 -7.05399 25.6846 
12.2071 -3.26812 24.7859 12.3848 -7.03931 21.7896 13.7235 -10.3969 21.6877 
12.9439 -12.9143 17.6067 13.989 1.61304 28.8587 12.1379 -6.13199 22.109 
12.272 -8.36087 19.3354 11.5285 -12.8837 13.0636 12.1451 -13.6895 14.7186 
11.3858 -10.7588 14.5581 13.3463 -12.244 19.0268 12.0809 -9.6425 17.19 
12.5099 -13.4398 16.2099 11.7368 -10.2241 15.8998 12.9996 -4.00901 25.9364 
13.728 0.382428 28.5245 11.6389 -12.4425 14.1967 12.2978 -4.90402 23.711 
13.0459 -5.57755 24.9748 12.1148 -9.13596 17.9193 12.3906 -7.54696 21.0245 
12.9944 -7.13695 23.3205 12.9615 -9.62207 20.259 13.3304 -3.34357 26.953 
12.7109 -10.5772 18.6663 13.0902 -8.86207 21.6084 13.5364 -2.56517 27.6972 
13.3922 -1.7452 27.6855 13.3315 -12.9746 18.3677 12.793 -11.6728 18.1513 
13.6608 -12.1978 19.7941 13.1187 -11.127 19.5266 12.4814 -14.0214 15.4318 
12.0943 -12.7916 15.5393 12.0766 -11.7982 16.3448 12.892 -13.632 16.9184 
12.4694 -12.526 16.9365 12.303 -11.1096 17.1487 11.4607 -9.9961 15.0985 
11.6827 -11.2211 15.4546 11.8406 -9.60474 16.4692 13.1256 -8.1647 22.5527 
13.6474 -7.44153 24.6963 13.2922 -6.44499 24.6848 12.446 -10.5026 17.8386 
13.3237 -5.04251 26.0703 13.5294 -10.7123 20.8117 13.1883 -9.59525 21.0361 
12.9039 -2.22234 26.5604 13.5282 -0.833497 28.0942 11.7426 -12.1235 15.0106 
12.849 -10.029 19.6111 14.0857 -14.3921 18.5191 13.8199 -13.9463 18.423 
13.9389 -14.4903 18.0337 11.7017 -5.71592 21.2397 11.956 -6.13116 21.5905 
11.8311 -5.71956 21.6608 13.6332 -14.2121 17.7207 13.8922 -14.7788 17.6103 
13.7621 -14.9532 17.1102 14.1257 -15.3133 17.3667 14.168 -14.1481 19.0107 
14.3657 -14.8522 18.5311 11.7004 -5.29595 21.6766 11.6103 -4.91259 21.7568 
11.5266 -5.03169 21.3293 14.1264 -13.0347 20.0335 14.2908 -13.6205 19.8814 
14.3317 -13.2749 20.3829 14.5118 -13.4825 20.7161 14.3782 -12.9589 20.7969 
13.3612 -13.5816 17.8233 13.2408 -13.7161 17.5051 14.2405 -13.9139 19.4215 
13.9662 -13.4777 19.2555 13.7314 -12.8413 19.3296 13.6375 -13.0052 19.0263 
14.4595 -14.2205 19.6675 11.8965 -7.88077 18.2591 12.0699 -8.46722 18.3075 
12.1103 -8.36612 18.5968 13.5113 -13.5088 18.2082 13.1602 -12.9475 18.014 
12.829 -15.565 14.1381 12.6093 -15.6166 13.6615 12.9628 -16.0516 13.7423 
11.8591 -7.52877 18.6078 11.7059 -7.07539 18.4804 11.7645 -7.39474 18.2903 
11.5619 -13.4332 12.7971 11.4422 -12.9652 12.6171 11.456 -13.4033 12.3665 
12.3739 -15.6533 13.173 12.292 -15.1278 13.5655 12.6327 -15.0324 14.4417 
13.0149 -15.5083 14.5945 12.1597 -15.6268 12.7484 12.3776 -16.0892 12.6932 
13.4877 -15.2429 16.0261 13.8624 -15.6528 16.1572 13.6224 -15.12 16.5448 
13.4003 -14.5659 16.8724 12.9116 -13.322 17.2497 13.1687 -13.9706 17.1216 
13.1965 -15.4177 15.1072 13.2783 -15.2084 15.6135 12.9382 -14.9369 15.3028 
13.1243 -14.7383 16.0077 11.4247 -10.3117 14.8587 11.4065 -9.66369 14.7508 
11.3542 -9.93371 14.436 12.715 -14.3894 15.5661 12.6024 -14.4874 15.1372 
13.4726 -15.8717 14.9102 12.0625 -5.48298 22.5435 12.0721 -5.20278 22.8678 
11.797 -5.01388 22.2715 12.2886 -13.4778 15.4874 12.487 -13.7583 15.7812 
12.2727 -13.0715 15.8851 13.6218 -11.8387 20.0606 13.9058 -12.4479 20.105 
13.9153 -12.1334 20.4166 13.366 -7.28633 24.0751 13.4384 -6.92959 24.5946 
13.1166 -6.72795 23.9772 14.5374 -11.8281 22.656 14.4148 -11.289 22.7525 
14.428 -11.6613 22.3455 14.2084 -9.53838 24.1289 14.0647 -8.91417 24.3708 
14.0069 -9.18363 23.8607 14.3919 -10.8805 23.1934 14.2543 -10.6758 22.8736 
14.4189 -12.3411 21.5572 14.5763 -12.6806 21.7028 14.4245 -11.9854 21.9784 
14.3687 -10.521 23.5831 14.4761 -10.9787 23.558 12.4046 -7.30344 21.4409 
12.103 -6.75914 21.1844 12.1025 -6.97392 20.8101 14.3152 -9.47958 24.7542 
14.3339 -9.84647 24.3262 14.4149 -10.0934 24.5318 14.143 -1.58347 29.3111 
14.1771 -1.05953 29.4755 14.0033 -1.21384 28.9836 14.3238 -10.1357 23.8828 
14.2935 -9.14439 25.1519 14.1849 -8.97879 24.795 14.3629 -9.22917 25.5366 
14.2753 -8.75863 25.609 14.0056 -9.6043 23.3908 14.082 -10.0603 23.0706 
14.2246 -10.1278 23.4792 14.1575 -1.9972 29.3259 14.1043 -2.46913 29.0648 
14.2232 -2.35683 29.5051 13.6522 -3.4082 27.623 13.7161 -2.87433 27.9678 
13.4453 -2.93196 27.36 13.9703 -8.47266 24.6304 13.4187 -9.18137 22.214 
13.4229 -9.62427 21.7196 13.7254 -9.96251 22.1916 14.2621 -11.3943 22.0692 
13.9222 -11.8537 20.6526 14.2091 -12.473 20.7381 13.9901 -11.0331 21.7087 
14.0231 -10.7553 22.1004 14.0205 -10.3199 22.5901 14.3803 -12.5859 21.1065 
14.2179 -11.9601 21.3145 11.8352 -6.22805 20.9729 12.054 -6.50506 21.4404 
12.5284 -6.6166 22.6629 12.2877 -6.62693 22.009 12.6838 -7.16329 22.5002 
11.531 -5.33991 21.0122 11.6332 -5.74664 20.8834 11.6492 -5.91208 20.5711 
11.8725 -6.72867 20.2766 11.6779 -6.19937 20.2068 11.6978 -6.52393 19.8 
13.9206 -7.69996 25.3808 13.9611 -7.46162 25.8342 13.7165 -7.19574 25.1976 
12.16 -7.59139 20.0917 11.9345 -7.24608 19.605 12.162 -7.74948 19.768 
13.7449 -8.92787 23.3942 12.7545 -7.88826 21.7705 12.7396 -8.17913 21.3362 
13.1044 -8.51093 22.0679 14.2639 -8.32417 26.1219 14.1331 -8.2547 25.5694 
13.6591 -10.6033 21.2821 13.9222 -11.2228 21.3305 11.5815 -4.57237 22.0039 
11.6868 -15.2126 11.8215 11.5598 -14.6512 11.9516 11.5701 -14.919 11.6099 
11.7806 -3.01112 23.9851 12.0226 -3.36297 24.3194 11.9162 -2.93412 24.3831 
11.4355 -14.0873 11.7138 11.4031 -14.0516 11.3398 11.4794 -14.531 11.4502 
11.5586 -15.0889 11.2451 11.8532 -15.4221 12.1109 11.8832 -15.8043 11.7974 
11.8334 -2.53215 24.4222 11.8129 -2.1568 24.5155 11.6936 -2.34278 24.1108 
11.4963 -14.1793 12.0596 11.4422 -13.7573 12.0306 11.9846 -15.4327 12.4755 
[...]
POINT_DATA 853
VECTORS velocity double
0.983722 -3.16387 -0.464161 1.14565 -3.29456 -0.479021 1.24942 -3.28468 -0.337297 
1.30744 -3.13794 -0.0731388 1.31498 -2.85312 0.283663 1.25408 -2.47821 0.602921 
1.11418 -2.04571 0.743939 0.869473 -1.53332 0.726376 0.546839 -1.01845 0.706026 
0.222168 -0.603492 0.815096 -0.0816983 -0.300779 1.05034 -0.314385 -0.139636 1.30651 
-0.445755 -0.109252 1.45564 -0.449195 -0.192552 1.38352 -0.317288 -0.345181 1.07748 
-0.0535084 -0.458592 0.635508 0.32917 -0.411427 0.294064 0.839482 -0.210416 0.172563 
1.45865 0.0379506 0.243612 2.09893 0.150987 0.37057 2.58288 0.0571606 0.436116 
2.73386 -0.0997866 0.438121 2.44939 -0.0672799 0.460379 1.6437 0.34146 0.587205 
0.23375 1.14731 0.769502 -1.27524 1.9043 0.769558 -2.43926 2.21924 0.540964 
-3.22332 2.17899 0.284762 -3.59761 2.03363 0.10447 -3.66713 2.08471 -0.0920143 
-3.5858 2.47378 -0.400089 -3.31522 2.96363 -0.728369 -2.89934 3.30855 -0.969651 
-2.42379 3.51848 -1.17247 -1.92748 3.63909 -1.42216 -1.42689 3.69058 -1.77934 
-0.885769 3.58667 -2.17902 -0.290961 3.23501 -2.55882 0.274473 2.54413 -2.78067 
0.702026 1.58344 -2.81793 0.906077 0.558652 -2.71936 0.938535 -0.381871 -2.52363 
0.895323 -1.13541 -2.27333 0.841879 -1.67017 -2.00464 0.810721 -2.08311 -1.73475 
0.755377 -2.32017 -1.46361 0.6665 -2.34487 -1.20501 0.527325 -2.0764 -0.928999 
0.290799 -1.27995 -0.572859 -0.0555236 0.339286 -0.0843881 -0.404645 2.49258 0.510863 
-0.647451 4.15412 1.17028 -0.775169 4.66827 1.76279 -0.790846 3.87803 2.07524 
-0.672068 1.76231 1.94829 -0.418212 -0.719439 1.41543 -0.0977521 -2.02354 0.818014 
0.23113 -2.50503 0.31801 0.529155 -2.75794 -0.0605097 0.775106 -2.96023 -0.313818 
1.0048 -3.32877 -0.582054 1.11338 -3.40551 -0.624008 1.27669 -3.56564 -0.722317 
1.31445 -3.50724 -0.618558 1.3937 -3.41256 -0.516077 1.39606 -3.20676 -0.290491 
1.40611 -2.93114 -0.178083 1.34484 -2.65304 0.0869183 1.24235 -2.20838 0.209076 
1.0958 -1.83489 0.353022 0.913655 -1.38105 0.316277 0.702697 -1.00694 0.387403 
0.394465 -0.52885 0.517308 0.160879 -0.26473 0.69582 -0.0836898 0.0622132 0.882609 
-0.251333 0.150237 1.09003 -0.451936 0.326986 1.30888 -0.562676 0.393089 1.42463 
-0.609126 0.411066 1.41446 -0.560264 0.271848 1.32676 -0.428332 0.144702 1.06779 
-0.268887 0.0719173 0.842905 -0.0115018 0.0552414 0.618078 0.274122 0.0363073 0.491152 
0.710757 0.129241 0.475425 0.993932 0.235461 0.5691 1.4697 0.290163 0.638255 
1.79047 0.317085 0.726027 2.14155 0.239458 0.713968 2.02282 0.282923 0.765141 
2.00709 0.254158 0.71354 1.58005 0.449145 0.767572 0.774223 0.869891 0.888297 
-0.101797 1.32148 0.980101 -0.90255 1.70127 0.970871 -1.64923 1.96081 0.907718 
-2.25121 2.00683 0.851239 -2.62617 1.96425 0.757073 -2.85291 1.84887 0.678688 
-2.98664 1.80684 0.538446 -2.94854 1.87844 0.352558 -2.78381 2.00088 0.223925 
-2.55225 2.22805 0.033639 -2.38469 2.41915 -0.117068 -2.0793 2.68611 -0.342944 
-1.80281 2.71304 -0.372513 -1.40836 2.8326 -0.644247 -1.16263 2.84854 -0.848231 
-0.733444 2.7647 -1.21824 -0.417693 2.5848 -1.43001 0.143992 2.14278 -1.85738 
0.464016 1.79799 -2.11557 0.896973 1.05347 -2.36069 1.11555 0.492801 -2.46143 
1.28101 -0.37573 -2.52316 1.29755 -0.908478 -2.4893 1.24334 -1.55368 -2.35213 
1.17591 -1.92253 -2.20721 1.07082 -2.11581 -2.03522 1.01412 -2.38428 -1.83978 
0.917754 -2.53495 -1.59477 0.871136 -2.68947 -1.38573 0.756171 -2.63836 -1.17033 
0.626959 -2.53318 -0.914476 0.42138 -2.06496 -0.615786 0.202957 -1.40651 -0.287679 
-0.0609753 -0.19167 0.0671581 -0.270031 0.948768 0.394781 -0.499039 2.50288 0.821724 
-0.601216 2.95499 1.14426 -0.689308 3.44774 1.45601 -0.712207 3.13161 1.67821 
-0.631041 1.69201 1.66953 -0.511807 0.245005 1.53301 -0.277575 -1.3182 1.10039 
-0.112608 -1.97714 0.835173 0.193231 -2.55351 0.365561 0.389659 -2.74039 0.103557 
0.655442 -3.00862 -0.237611 0.78273 -3.09171 -0.364482 -0.527814 1.43442 1.2215 
-0.437618 1.37383 0.868751 -0.345039 -0.538173 1.10307 -0.0867831 -0.740132 0.323857 
-0.282045 -0.19856 0.779213 0.0736608 -2.33925 0.496918 0.380398 -2.39662 -0.309595 
0.0630279 -1.9488 0.341415 0.537898 -2.99775 -0.141421 0.784137 -2.98582 -0.909509 
1.27276 -3.70189 -0.966336 0.94872 -3.39013 -0.645659 1.31315 -3.0411 -1.84054 
1.07934 -3.12618 -1.41909 0.0819034 1.17951 1.14257 1.38208 -0.602893 -1.88082 
1.6231 -1.76899 -2.21014 0.517325 -2.92991 -0.270871 1.49971 -2.79428 -2.09926 
1.0571 0.71747 1.02025 -0.990602 1.62901 1.16874 1.47875 -2.54785 -0.70558 
1.549 -3.32361 -0.903322 1.4979 -3.73286 -1.09428 -0.251365 0.654137 0.834339 
-0.754337 1.03603 1.34089 -0.318499 2.8121 -1.92968 0.701933 0.693274 -1.24389 
-1.83095 3.07661 -0.799814 1.06731 0.498573 -2.62848 0.987721 0.65989 1.12997 
-1.5921 1.59572 1.27301 1.19291 -1.61766 -0.373582 0.211057 0.131561 0.363189 
-0.828979 2.07904 0.140227 -1.33427 2.0833 0.437822 0.857565 -0.923957 -0.101736 
1.43134 -0.637592 -2.31467 -0.153831 1.71103 -0.550848 -0.583436 0.965292 1.19468 
-0.345966 0.671363 0.937407 0.925055 -3.34681 -0.828908 0.110193 1.72907 -1.175 
-1.22767 2.3035 0.0857403 -0.0545646 1.12104 1.31454 0.567352 0.633284 1.13567 
-1.75071 1.41339 1.24596 -0.661038 0.886368 1.16016 -1.65728 1.74937 0.688381 
0.129091 0.566796 0.948428 -1.76754 1.44728 0.995503 1.6295 -1.90275 -1.74312 
1.24203 -3.61625 -1.24191 -0.445264 1.05845 1.44885 1.01466 0.375193 -1.73818 
1.20717 -0.791233 -1.12839 -1.59551 2.02656 0.436941 -0.535815 2.02193 -0.27534 
0.375165 0.601388 -0.348807 -0.835432 1.70773 0.87387 1.69199 -2.82588 -1.6293 
-1.01177 1.58368 1.04109 -0.461832 1.41682 0.582611 1.66101 -3.42032 -1.51936 
1.62566 -3.53787 -1.69064 -0.418499 0.572374 0.952133 -0.787918 1.18769 1.12107 
-0.675893 0.772579 1.27826 -0.844598 1.3558 1.21768 0.656694 0.471945 0.900618 
-0.188732 0.798798 1.25033 -0.775955 1.04873 1.23497 0.0785126 0.42945 0.774594 
-0.427853 0.845417 1.07266 -1.0397 1.29482 1.1137 -2.175 1.5309 0.937789 
-1.22423 1.19707 1.31592 -1.9418 1.6856 0.692465 -0.0870212 1.03231 0.225376 
0.599115 -0.299963 -0.0731987 0.894566 -0.429423 -0.64246 -1.15794 1.54676 0.987766 
1.44808 -1.70674 -1.15472 -0.737316 1.20009 1.26441 -0.668226 1.48217 0.909277 
1.65688 -2.67554 -2.09232 1.4908 -3.70312 -1.54596 -0.653072 1.01836 1.42037 
-0.943176 1.71361 0.968171 0.00109384 -0.238201 0.569199 -0.117505 0.019953 0.688408 
0.134581 -0.173885 0.477887 -0.386292 2.73133 -1.7003 -0.17339 2.19689 -1.2819 
-0.113792 2.3243 -1.5916 0.117635 0.0298904 0.545697 0.338753 -0.195776 0.363917 
0.555825 -0.133838 0.313081 0.567332 -0.324487 0.206083 -0.148431 -0.221626 0.730144 
0.124112 -0.459855 0.438647 -0.0951419 2.52221 -1.91691 -0.0429801 2.63733 -2.18193 
-0.338979 3.04206 -2.21677 -0.503047 0.197668 1.20873 -0.362616 -0.122344 1.05816 
-0.449897 -0.0457972 1.23371 -0.40062 -0.264675 1.25977 -0.49908 0.0177808 1.34776 
-0.133606 0.323494 0.749686 -0.0173207 0.310356 0.70616 -0.257971 -0.185191 0.882114 
-0.36108 0.116851 0.961215 -0.531528 0.490622 1.11631 -0.470986 0.455651 1.03236 
-0.201082 -0.415703 0.859055 -1.9157 2.70074 -0.353952 -1.67016 2.34951 0.0610229 
-1.56452 2.39027 0.0163507 -0.22498 0.300916 0.794672 -0.386512 0.623288 0.934062 
2.03238 0.214916 0.53446 2.23495 0.189356 0.565799 2.37232 0.125537 0.413234 
-1.83763 2.90872 -0.599567 -2.08085 3.27799 -0.974604 -2.08742 3.04884 -0.726661 
0.522305 0.92521 1.18555 0.0309598 1.15718 1.22497 0.500486 0.978014 1.11017 
2.40117 0.135101 0.576465 1.97084 0.293811 0.740477 1.62804 0.31315 0.689844 
1.81665 0.20941 0.489717 2.47728 0.0839802 0.577448 2.70788 -0.0282498 0.442482 
1.07849 0.0439075 0.334434 1.13871 -0.0827543 0.18914 0.821847 -0.0447909 0.304661 
0.496787 0.0659778 0.455721 -0.124899 0.52286 0.841731 0.177684 0.259072 0.640371 
1.55187 0.173918 0.434325 1.2434 0.136425 0.416532 1.2474 0.250831 0.577257 
0.876538 0.185412 0.516514 -2.01529 1.47301 1.07971 -2.54745 1.65541 0.768781 
-2.44214 1.63023 0.892487 0.846899 0.354828 0.735482 1.04483 0.381905 0.782261 
1.78766 0.121671 0.311492 0.408725 1.51237 -1.56771 0.603556 1.25061 -1.69961 
0.286336 1.99787 -1.96802 0.281174 0.616155 1.07611 0.405058 0.509059 0.925173 
-0.0379381 0.700124 1.1192 -0.724777 0.908198 1.32909 -0.623101 0.542146 1.3038 
-0.661716 0.634258 1.36759 0.520378 0.0831709 -0.213561 0.72934 -0.295697 -0.367161 
0.661522 0.110566 -0.550273 -0.394194 -0.109153 1.40224 -0.38712 0.0792349 1.31955 
-0.457443 0.107825 1.40244 0.0408597 -0.095401 0.777865 0.192127 -0.128757 0.564789 
0.0337998 0.124879 0.667426 -0.286973 0.0191345 1.20076 -0.348545 0.259802 1.18652 
-0.525106 0.100996 1.45389 -0.464469 -0.139301 1.45125 -0.500831 0.114918 1.44698 
-0.181757 -0.0596819 1.08294 -0.21062 -0.20142 1.18543 -0.335904 1.86054 -0.39999 
-0.427285 2.23379 -0.855573 -0.632448 2.3807 -0.746327 0.186264 -0.426311 0.756682 
0.0471785 -0.271011 0.861299 0.067791 -0.439106 0.919112 1.36986 -3.67851 -0.870413 
1.29104 -3.65456 -0.85094 1.4073 -3.77897 -1.08124 -0.0828926 -0.104602 0.961943 
0.317145 -0.586932 0.679208 0.270068 -0.374045 0.60217 0.38273 -0.796929 0.742509 
0.466871 -0.78791 0.614183 -0.136018 0.308263 0.838366 -0.261665 0.362713 1.00726 
-0.174398 0.117727 0.991471 1.3895 -3.61901 -0.783517 1.45074 -3.57581 -0.793502 
1.36202 -3.49426 -0.598713 1.63369 -3.12702 -1.26412 1.62375 -3.41973 -1.27672 
1.68488 -3.17276 -1.58033 0.333153 -0.237765 0.403566 -0.352904 1.05533 0.734463 
-0.521344 1.19261 0.930305 -0.450157 0.866612 1.04021 -0.517118 0.360511 1.38381 
-0.68041 0.710156 1.39327 -0.5857 0.322591 1.38358 -0.589843 0.696378 1.34166 
-0.514239 0.626993 1.26784 -0.391117 0.539348 1.12289 -0.538463 0.128716 1.4138 
-0.596738 0.403191 1.43838 -0.550819 2.6635 -1.33381 -0.277648 2.1579 -1.01529 
0.28091 1.13879 -0.742587 -0.000674046 1.66358 -0.82318 0.106994 1.18519 -0.388778 
-0.557441 3.17645 -2.06401 -0.6301 3.03381 -1.76113 -0.839072 3.17922 -1.687 
-0.96383 2.84512 -1.04784 -1.07111 3.24606 -1.51491 -1.31352 3.26014 -1.31061 
0.6468 -0.672439 0.155638 0.771813 -0.940309 0.14183 0.751963 -0.627262 -0.130744 
-0.979733 2.44973 -0.375894 -1.3038 2.83948 -0.720514 -1.12483 2.48645 -0.296481 
-0.0281698 0.439637 0.583484 -0.279317 1.52245 0.0313226 -0.463581 1.68627 0.183169 
-0.286326 1.25346 0.407542 0.630108 -1.03133 0.573002 0.552473 -0.750735 0.428857 
-0.663113 1.06463 1.25255 -0.647573 0.776833 1.37595 0.115267 2.52695 -2.3496 
2.25734 0.094584 0.587772 1.77918 0.357434 0.753641 2.01012 0.200967 0.620578 
1.08237 0.548278 -2.57093 1.27706 -0.0358643 -2.38008 1.23927 0.0110252 -2.49955 
1.22233 0.635062 0.830907 1.1699 0.641076 0.74483 1.6505 0.382138 0.67451 
2.12171 0.0830178 0.508971 2.41095 0.0541486 0.575139 2.6489 -0.122051 0.438951 
1.17053 0.0865347 -2.58322 1.11374 0.0624951 -2.6203 0.988238 0.59661 -2.69357 
1.32022 0.59543 0.888731 0.881152 0.813992 0.970898 2.39315 0.102133 0.612622 
2.05417 0.253136 0.730575 0.602143 0.953981 0.815586 1.00358 0.707932 0.685707 
-0.0362294 1.26736 1.06584 0.310495 1.11309 0.934725 0.425976 1.0411 1.02482 
1.60564 0.460725 0.856194 2.09588 0.256417 0.744736 0.0463341 1.25521 0.886559 
-0.49197 1.51346 0.985678 -0.463455 1.51817 0.893673 -0.555153 1.57156 0.802686 
-1.04355 1.78619 0.882164 -2.01635 2.09447 0.756253 -1.90491 2.11846 0.673273 
-1.54998 1.9763 0.830983 -1.27775 1.84152 0.959926 -0.363979 1.37122 1.1859 
-0.519061 1.49116 1.08645 0.857987 -3.231 -0.477668 1.0007 -3.39297 -0.63878 
0.892296 -3.21219 -0.480946 1.0224 0.701083 1.09601 1.5794 0.477817 0.90781 
1.57145 0.472064 0.9377 -0.962369 1.68856 1.05443 -1.42212 1.83844 1.03227 
-2.88048 2.23036 0.403207 -2.42954 2.13784 0.666837 -2.75911 2.12674 0.574197 
-2.48821 1.98799 0.797708 -2.90241 2.05847 0.565326 -2.72716 1.91499 0.734099 
-3.15113 2.02374 0.448112 0.730902 -3.16628 -0.563937 0.671684 -3.0195 -0.592086 
0.86528 -3.20087 -0.875069 -3.46034 2.09998 0.188561 -3.29871 1.97106 0.368533 
-1.93845 2.00003 0.893261 -1.93113 1.82525 1.07124 -1.67059 1.84354 1.0704 
-1.27567 1.62436 1.25263 1.13272 -3.57884 -0.852825 1.1202 -3.51287 -0.743981 
-0.567235 1.3818 1.28901 1.32977 -2.29422 -2.18583 1.42086 -2.94627 -1.99362 
1.27108 -2.48147 -2.07009 -2.28876 3.08002 -0.747531 -1.846 2.33669 0.0511933 
-1.45375 2.05878 0.442186 -2.67457 3.44128 -1.08356 -2.48754 2.99523 -0.668464 
-2.67751 2.8339 -0.536089 -2.2562 2.58215 -0.255336 -1.90969 3.33489 -1.07965 
-1.62655 2.97955 -0.743334 -1.63448 3.17891 -0.996306 -2.49778 2.32723 -0.0492376 
-2.10973 1.9807 0.358311 -2.01253 2.05128 0.30931 -1.5162 3.24274 -1.14352 
-1.67489 3.67462 -1.59008 -1.16819 3.66811 -1.97799 -0.448671 0.458421 1.18992 
-0.512622 0.629773 1.41175 -0.573248 1.42694 1.4401 -0.355408 1.12749 0.633428 
-0.476122 2.02432 0.843131 -0.4013 1.7941 0.625635 0.0922411 -1.25232 -0.0282396 
-0.0688007 -0.418093 0.160295 0.0446082 -0.731329 -0.074084 -0.597629 3.45522 -2.37952 
-2.17816 3.58347 -1.28107 -0.711344 1.35567 1.11142 -0.750339 1.59938 0.90362 
-0.792699 1.50761 1.08017 -0.147149 0.255273 0.197999 -0.210667 0.23671 0.401465 
-3.38678 2.02277 0.0963948 -3.40416 1.95265 0.208804 -3.00902 1.83319 0.43331 
-2.34716 1.64563 0.979727 -2.26144 1.71628 1.02559 -1.68192 1.47987 1.29278 
0.45697 -2.73261 -0.288439 0.289787 -2.56019 0.0390124 0.227205 -2.23992 0.0246007 
-3.37695 1.94389 0.294552 -3.65772 2.01861 0.0166839 -3.64327 2.24278 -0.231188 
-3.32923 2.13513 -0.0170516 -2.93386 1.81436 0.614431 -2.9075 2.50809 -0.28181 
-2.85344 2.70277 -0.442355 -3.10995 3.14344 -0.846776 -2.70967 2.15287 0.0794141 
-3.11591 2.41135 -0.232194 -3.48198 2.73316 -0.577487 -3.23706 2.25378 -0.112699 
-0.403269 0.508631 0.995592 -0.302002 -0.401184 0.911658 -2.8561 1.92156 0.304674 
-0.139051 -1.07329 0.601837 -0.196333 -0.480385 0.583691 0.00232123 -1.46994 0.321673 
-1.34931 1.35432 1.08697 -1.50653 1.49465 0.948397 -1.84344 1.55421 0.852576 
0.705449 -2.62505 -1.05102 0.774418 -2.79239 -1.07128 0.68257 -2.7526 -0.875658 
-0.360163 0.527314 0.828505 -0.288081 0.348992 0.625966 -2.00119 1.48851 0.965201 
-2.39169 1.66795 0.682681 -2.53171 1.67554 0.686428 -1.31973 2.58357 -0.321994 
-1.02713 2.20972 0.121651 0.868432 -2.88172 -1.20708 0.813271 -2.67699 -1.27223 
0.00665364 2.92939 -2.69944 0.353138 2.22705 -2.47732 -1.53501 2.52734 -0.167748 
-1.55885 2.72454 -0.429349 0.892063 -1.45695 0.512747 0.815264 -1.21536 0.373067 
0.774283 -1.26945 0.560208 0.709701 -1.26365 0.704324 1.21925 -1.24374 -0.800288 
1.06256 -0.635791 -0.881591 1.06815 -1.02284 -0.577213 1.00117 -1.70566 0.55677 
1.01281 -1.61405 0.328034 1.10126 -1.93761 0.546716 1.00808 -1.80324 0.748411 
1.20172 -0.0943895 -1.78832 1.15976 0.257469 -2.12487 0.978377 0.68273 -2.04643 
1.24599 -2.35267 0.440176 1.17823 -2.13902 0.509719 1.19542 -2.26996 0.69694 
1.4456 -2.83867 -0.398356 1.38771 -2.62206 -0.195871 1.37813 -2.78888 -0.0438716 
1.29269 -2.67064 0.464054 1.33259 -2.75349 0.216787 1.29913 -2.57099 0.33869 
1.31096 -2.46053 0.123794 1.16914 -1.99952 0.275704 1.45686 -3.27975 -0.529699 
1.47281 -3.09569 -0.516029 1.4077 -3.08855 -0.237765 1.35475 -2.09015 -0.5152 
1.24341 -2.01945 -0.0878601 1.33952 -2.33495 -0.194034 0.929568 1.01564 -2.62768 
0.789379 1.39867 -2.62615 1.03777 0.715023 -2.41893 0.776273 1.04515 -1.90116 
0.684025 1.47363 -2.26576 -0.48148 1.40483 1.03423 0.598609 1.81433 -2.57229 
0.509761 2.08997 -2.81716 0.916533 0.962564 -2.71157 1.45813 -1.01514 -2.39938 
1.36954 -0.527262 -2.44166 1.55178 -1.24132 -2.25752 1.36118 -2.90654 0.0456563 
1.50064 -1.41686 -2.37085 1.29142 -0.597891 -2.51699 1.66003 -1.89736 -2.01192 
1.57615 -1.31728 -2.06865 1.47295 -3.4395 -0.702712 1.54298 -3.56621 -1.02453 
0.828127 1.08199 -2.78601 1.35713 -3.04842 -0.0366689 1.54306 -2.98286 -0.844704 
1.13579 -1.78682 0.0754242 1.09975 -0.169607 -2.60148 1.35234 -3.1779 -0.169974 
1.31824 -3.01332 0.0954408 1.03058 -1.47905 0.0435025 1.32091 -3.35592 -0.399079 
1.34269 -3.2752 -0.28888 1.28472 -3.22956 -0.219776 1.68198 0.412753 0.89291 
1.30126 -3.54586 -0.679923 1.28105 -3.4024 -0.484471 1.23843 -3.41671 -0.540587 
1.20234 -3.30327 -0.42241 1.4028 -3.31336 -0.413917 1.12671 -3.35749 -0.56654 
1.19758 -3.49794 -0.681023 1.21166 -3.44155 -0.598304 1.04981 -3.28772 -0.540471 
0.982819 -3.23063 -0.50954 1.07299 -3.38716 -0.621517 1.07128 -3.24494 -0.492127 
1.28819 -1.27878 -2.42866 1.51533 -1.81068 -2.33239 1.47882 -2.08849 -2.29091 
0.885029 -3.06641 -0.403932 0.89399 -3.14599 -0.445817 1.69109 -3.18489 -1.7846 
1.70743 -2.80768 -1.88939 1.65857 -3.21476 -1.88778 1.60211 -3.2679 -1.9083 
1.58116 -2.74381 -2.12267 1.17829 -3.54246 -0.750195 0.777651 -3.02974 -0.338086 
0.655324 -2.85375 -0.1972 0.670355 -2.93499 -0.227877 0.771056 -3.16974 -0.396595 
0.725228 -3.05733 -0.310773 0.592731 -2.89033 -0.146509 0.521699 -2.87347 -0.0693971 
0.450468 -2.74908 0.0293753 0.767171 -3.2192 -0.439991 0.617177 -3.02583 -0.21067 
0.197295 -2.51599 0.365892 0.307228 -2.67647 0.210276 0.315933 -2.63042 0.204013 
0.386581 -2.64555 0.111392 -0.109165 -2.00025 0.83568 0.03223 -2.307 0.604063 
0.0548022 -2.32893 0.574227 0.068131 -2.316 0.554102 -0.26087 -1.5361 1.10671 
-0.252653 -1.53413 1.08375 0.32298 -2.76331 0.140687 0.331125 -2.75131 0.161368 
0.158651 -2.52765 0.402333 1.6746 -2.39928 -1.67429 1.58807 -2.31569 -1.29694 
1.61764 -2.74703 -1.24657 0.442453 -2.84646 0.0215542 0.946817 -3.10887 -1.1623 
1.03401 -3.32957 -1.12574 0.536735 -3.00703 -0.208519 0.308301 -2.70576 0.101054 
1.65594 -2.22711 -2.16026 0.425892 0.897179 1.26736 -0.143013 -1.7939 0.854756 
-0.0293381 -2.16295 0.688237 -0.196559 -1.6906 0.969686 0.932644 0.0696205 -2.63004 
1.09808 -0.546601 -2.53575 1.08298 -0.940494 -2.43977 -0.138793 -1.39478 0.711225 
1.05351 -1.25045 -2.34065 0.927479 -0.788919 -2.40535 1.05061 -1.54717 -2.24453 
1.19163 -1.71414 -2.28417 0.144777 -1.7523 0.0251329 0.26875 -1.88963 -0.266589 
0.988915 -1.67874 -2.14518 1.12204 -2.03128 -2.12101 1.11762 -3.57288 -0.946108 
1.27159 -3.71071 -1.11989 0.928684 -2.0281 -1.92589 0.95921 -1.87791 -2.03189 
1.05735 -2.28016 -1.94579 0.954518 -2.88392 -1.38544 0.9469 -3.40895 -0.741289 
1.09177 -3.49466 -1.04889 0.859577 -1.41059 -2.13861 1.39867 -2.17959 -2.25321 
0.967523 -2.49813 -1.70246 0.869311 -2.31973 -1.66831 0.898338 -2.17681 -1.80406 
0.827181 -1.89664 -1.86956 0.819254 -2.51543 -1.42843 0.839083 -2.41926 -1.54387 
0.899782 -2.625 -1.49406 0.596196 -2.80065 -0.604977 0.789963 -2.22854 -1.60098 
0.763685 -2.50627 -1.31505 0.5466 -2.56089 -0.664032 0.412285 -2.22476 -0.501697 
0.519361 -2.33669 -0.744201 0.654152 -2.44267 -1.07182 0.712207 -2.49709 -1.1906 
0.0765732 -2.20498 0.419268 0.607096 -2.26172 -1.07298 0.578323 -2.31896 -0.934854 
0.478027 -2.08092 -0.773709 0.366629 -1.74579 -0.608697 0.422983 -1.76076 -0.764866 
1.21099 -3.15347 -1.62863 1.0856 -2.80449 -1.67931 1.15828 -2.71845 -1.83527 
0.711742 -2.35405 -1.33193 -0.138787 -1.65637 0.799094 1.57452 -3.64131 -1.63415 
1.52957 -3.3648 -1.84726 -0.481667 -0.153395 1.51676 -0.402402 -0.609289 1.32681 
-0.347163 -1.05345 1.25024 -0.299542 -1.0736 1.10381 -0.572654 0.921788 1.61456 
-0.452661 -0.0648579 1.36841 -0.591319 0.908435 1.72906 -0.668535 1.88708 1.85116 
-0.559942 0.453839 1.71434 -0.635058 2.301 1.47756 -0.680581 2.49494 1.68658 
-0.725524 2.80597 1.90188 -0.756795 3.5463 1.87169 -0.758432 3.96458 1.7624 
-0.73555 4.08025 1.59307 -0.700739 3.26701 1.56438 -0.62876 2.57799 1.36047 
-0.79768 4.44234 1.9636 -0.725017 4.5647 1.49064 -0.689052 3.93753 1.3732 
-0.74979 2.96407 2.07422 1.25982 0.010906 -2.23409 -0.575078 2.29546 1.18555 
-0.536172 2.23577 1.03295 0.0976594 -0.711685 -0.228765 -0.0506643 -0.0311414 -0.00722339 
1.1832 -2.50262 -1.9736 0.129492 -0.590903 -0.346545 0.246318 -1.32707 -0.436076 
-0.183482 0.775386 0.173733 0.327712 -1.82621 -0.463557 -0.630965 3.54811 1.16514 
-0.569893 3.28127 0.955704 -0.56347 2.85373 1.00333 -0.645143 3.20038 1.2917 
-0.329211 1.65807 0.420062 -0.464452 2.56344 0.690506 -0.541074 3.44514 0.835156 
0.996277 -2.7758 -1.55081 -0.240534 1.41878 0.203664 1.41087 0.470617 0.946826 
0.753038 -3.22439 -0.495014 -2.26244 1.83514 0.977969 1.13217 0.430753 0.865042 