# vtk DataFile Version 3.0
vtk output
ASCII
DATASET POLYDATA
POINTS 853 float
14.0588 1.02804 30.6579 13.9007 0.0741951 30.5054 13.8133 -0.959199 30.2691 
13.7715 -2.07534 29.8899 13.7484 -3.32889 29.3565 13.7797 -4.63121 28.6804 
13.8389 -5.89831 27.8618 13.9413 -7.18294 26.861 14.1159 -8.3934 25.7613 
14.3078 -9.45485 24.6874 14.5033 -10.4664 23.5969 14.6719 -11.3999 22.5557 
14.7848 -12.2657 21.5602 14.7822 -13.0682 20.5926 14.661 -13.7691 19.7092 
14.4995 -14.4114 18.7817 14.1902 -14.9663 17.7792 13.7261 -15.4446 16.6744 
13.1436 -15.8196 15.4278 12.3978 -16.0712 14.1497 11.608 -16.1537 12.9883 
10.9777 -15.9834 11.9771 10.6644 -15.5195 11.2269 10.7254 -14.7532 10.7905 
11.1194 -13.7131 10.6401 11.6346 -12.5778 10.8493 12.2109 -11.4958 11.4167 
12.8867 -10.5293 12.2592 13.4739 -9.7321 13.2787 13.6652 -9.13454 14.3844 
13.448 -8.77049 15.5112 13.1166 -8.64292 16.5882 12.8835 -8.607 17.5644 
12.7032 -8.50111 18.5069 12.4793 -8.22165 19.4804 12.1795 -7.69721 20.4837 
11.8419 -6.94508 21.5024 11.5142 -5.92684 22.5633 11.2908 -4.73018 23.5974 
11.1953 -3.42308 24.574 11.2871 -2.01452 25.4389 11.5672 -0.638001 26.1126 
11.933 0.641016 26.5873 12.2754 1.75413 26.9268 12.569 2.74795 27.2583 
12.8495 3.70699 27.551 13.1009 4.57927 27.8197 13.3599 5.30314 28.1097 
13.7161 5.88038 28.3906 14.2255 6.31938 28.643 14.823 6.59261 28.8849 
15.4263 6.66652 29.1461 15.9267 6.5358 29.4014 16.1779 6.2225 29.6387 
16.1546 5.73985 29.8852 15.8849 5.09477 30.1586 15.4699 4.33994 30.4099 
15.0242 3.54822 30.5654 14.603 2.73261 30.6854 14.2769 1.90048 30.7383 
14.0341 1.53514 30.2925 13.9071 0.921495 30.3159 13.7622 0.168649 30.0149 
13.7367 -0.449718 29.9863 13.65 -1.38821 29.627 13.6337 -2.20151 29.4063 
13.5511 -3.11157 28.861 13.6071 -3.9027 28.5787 13.6092 -4.97426 27.8713 
13.7062 -5.88886 27.3155 13.7166 -6.72797 26.5299 13.8378 -7.51615 25.8668 
14.0034 -8.4938 24.9143 14.1849 -9.2377 24.2329 14.2616 -9.90421 23.3768 
14.417 -10.5471 22.7965 14.5009 -11.2723 21.8787 14.5165 -11.8609 21.1322 
14.4999 -12.4125 20.3393 14.4465 -12.8793 19.8784 14.2871 -13.4114 19.109 
14.0548 -13.7632 18.5231 13.7627 -14.1113 17.7245 13.4728 -14.4451 17.1307 
13.0093 -14.7901 16.1836 12.6211 -14.9091 15.4713 12.1805 -15.1898 14.5603 
11.7295 -15.2584 13.714 11.24 -15.3786 12.8354 11.0236 -15.138 12.3167 
10.7898 -15.0617 11.7576 10.7769 -14.6852 11.4109 10.9616 -14.0864 11.22 
11.2162 -13.4689 11.1951 11.4494 -12.8688 11.2189 11.7449 -12.2336 11.4766 
12.0557 -11.5865 12.0705 12.3147 -11.0854 12.5826 12.5504 -10.6039 13.3242 
12.8028 -10.1807 14.0727 12.9106 -9.83933 14.986 12.937 -9.71366 15.7004 
12.8914 -9.58746 16.5488 12.9071 -9.47345 17.1426 12.8592 -9.2775 18.0597 
12.8322 -9.22323 18.6154 12.6876 -8.81568 19.6486 12.5189 -8.49431 20.261 
12.2735 -7.82651 21.2293 12.0612 -7.36172 21.8597 11.7751 -6.31779 22.9349 
11.5959 -5.58659 23.5583 11.4583 -4.45942 24.4593 11.3831 -3.66139 25.0437 
11.424 -2.30323 25.8684 11.5848 -1.45822 26.2983 11.8287 -0.263904 26.8121 
12.0446 0.559446 27.0949 12.2003 1.38053 27.2881 12.479 2.10169 27.5014 
12.7345 2.96188 27.6994 12.9879 3.48893 27.9244 13.1739 4.18031 28.053 
13.4679 4.71062 28.2116 13.7508 5.33643 28.3676 14.0911 5.68939 28.5262 
14.4202 6.04914 28.6838 14.728 6.23402 28.8164 15.1216 6.41473 28.9791 
15.388 6.37025 29.1242 15.6555 6.34644 29.2604 15.8282 6.18451 29.415 
15.8325 5.84865 29.5928 15.7852 5.49416 29.8127 15.5253 5.01815 29.8973 
15.3792 4.5945 30.0904 15.0005 3.94271 30.1862 14.7413 3.40188 30.3677 
14.4245 2.78419 30.2841 14.2717 2.27978 30.4029 15.4404 5.97309 29.261 
15.1418 6.11606 29.0465 15.3654 5.45148 29.5283 14.664 5.73689 28.8842 
15.0506 5.72629 29.1553 14.9617 4.59916 29.7182 14.0986 5.00522 28.7274 
14.7109 5.1351 29.1817 14.4441 3.55067 29.8496 13.5313 3.9718 28.5563 
13.628 1.13394 29.6699 13.9755 2.40217 29.8371 12.5685 1.40143 27.994 
13.0197 2.76369 28.3172 11.234 -13.5826 11.7724 11.9494 -4.27992 25.4781 
11.9272 -2.22598 26.6667 14.2258 4.21561 29.1891 12.3186 0.0509546 27.6225 
11.0373 -14.297 11.9965 11.547 -12.7538 11.841 13.1819 -3.65594 27.7991 
13.298 -1.9246 28.7396 13.3746 -0.332072 29.2508 13.9341 -9.85624 22.5037 
13.9732 -11.9573 19.7334 11.7922 -6.73321 22.23 12.219 -6.28103 23.913 
12.7008 -8.78987 19.0536 11.2681 -2.90155 25.2771 11.372 -14.3054 13.0352 
11.9203 -12.036 12.8316 13.2799 -5.44846 26.6857 13.7211 -8.58406 23.878 
13.0005 -9.38396 20.3133 13.0592 -10.1393 18.5288 13.4525 -6.74731 25.7156 
11.6196 -3.10769 25.8015 12.5684 -8.00862 22.1114 14.0437 -10.8827 21.1967 
13.1498 -13.2662 17.2235 13.7267 3.14406 29.1368 12.1742 -7.09532 22.7096 
12.961 -9.58199 19.3142 11.4774 -13.45 12.5091 11.896 -14.0442 14.2487 
12.1965 -11.4908 14.0471 13.6898 -12.6729 18.5441 12.9398 -10.5713 16.9221 
12.4908 -13.7581 15.8281 12.6179 -10.9911 15.507 12.3337 -3.33589 26.6667 
13.3032 2.0363 29.0184 11.812 -13.0031 13.6046 11.8962 -5.25446 24.5349 
12.5524 -5.40747 25.4746 12.9532 -10.2082 17.7471 12.7623 -8.65332 21.2044 
12.9111 -7.58209 23.5388 13.449 -10.4982 19.9183 12.653 -2.22566 27.6303 
13.2622 -11.3755 18.2573 13.4039 -9.62492 21.409 12.8886 -1.14566 28.3416 
12.7763 -0.24324 28.3965 13.5672 -13.2725 17.963 13.213 -12.262 17.7068 
14.0037 -12.5713 19.254 13.5658 -11.7798 19.0321 12.2212 -14.2972 15.0618 
12.2015 -13.2285 15.0384 12.483 -12.3539 15.8624 12.9094 -13.8811 16.5988 
12.7101 -12.9689 16.5133 12.8561 -11.7853 16.7188 12.4948 -10.7868 14.7127 
12.2866 -11.859 14.9329 12.8121 -10.495 16.194 13.2596 -8.77106 22.5196 
13.424 -7.42591 24.7406 12.9427 -6.41614 24.9808 13.0703 -11.3046 17.4569 
12.7115 -4.44162 26.5474 13.9238 -11.2969 20.2906 13.5862 -10.3561 20.6815 
12.2681 -1.13495 27.4337 12.9802 0.794999 28.7394 12.0499 -12.6707 14.4402 
13.3793 -10.8962 19.2286 14.1454 -14.3422 18.2321 13.9285 -14.0075 18.0989 
13.9472 -14.467 17.7921 11.9169 -7.04882 22.025 12.1127 -7.28431 22.2211 
11.9376 -6.89818 22.4228 13.6475 -14.279 17.4645 13.8188 -14.7428 17.4217 
13.5995 -14.9417 16.9539 13.9607 -15.2118 17.2447 14.2849 -14.1064 18.6558 
14.3745 -14.704 18.2901 11.7697 -6.51687 22.5721 11.6309 -6.14089 22.7626 
11.6701 -6.41915 22.327 14.3844 -13.1657 19.5011 14.4889 -13.6204 19.3981 
14.563 -13.3065 19.8337 14.719 -13.4256 20.1518 14.6285 -13.0173 20.2057 
13.4768 -13.777 17.4961 13.3064 -13.9077 17.2 14.399 -13.8878 19.006 
14.1698 -13.5768 18.8198 14.0091 -13.0957 18.8464 13.8908 -13.2466 18.5773 
14.5914 -14.0986 19.2539 12.8488 -9.25673 18.378 12.939 -9.69825 18.2773 
12.9369 -9.62 18.5877 13.6649 -13.6913 17.8564 13.3836 -13.2723 17.6239 
12.0003 -15.7018 13.9003 11.6852 -15.7386 13.4018 11.9993 -16.1384 13.5504 
12.7694 -8.99183 18.8246 12.687 -8.66383 18.8269 12.7636 -8.89968 18.5424 
11.262 -13.901 12.2865 11.3372 -13.535 12.0912 11.1532 -13.8854 11.8801 
11.3723 -15.7483 12.8994 11.4563 -15.303 13.2318 11.961 -15.2231 14.1436 
12.2876 -15.6451 14.3822 11.1209 -15.6989 12.4665 11.2567 -16.1052 12.4675 
13.0998 -15.3077 15.8806 13.4589 -15.6509 16.0693 13.347 -15.1459 16.4039 
13.2547 -14.6482 16.6682 13.0185 -13.6105 16.9033 13.1507 -14.1413 16.8466 
12.5925 -15.5403 14.9227 12.8111 -15.317 15.4371 12.4505 -15.1022 15.0603 
12.8072 -14.8752 15.7901 12.3758 -11.0737 14.4157 12.5898 -10.4992 14.4202 
12.4767 -10.7551 14.0533 12.3871 -14.6081 15.2619 12.1795 -14.7179 14.8106 
12.7794 -15.9612 14.7772 11.9407 -6.32828 23.3169 11.8545 -5.9264 23.6963 
11.6967 -6.01376 23.2075 12.1854 -13.8242 15.0507 12.3408 -14.0514 15.4051 
12.3193 -13.4568 15.4371 13.9898 -12.2727 19.5033 14.2193 -12.7222 19.546 
14.2467 -12.4477 19.8346 13.1959 -7.46875 24.204 13.1631 -6.94231 24.7717 
12.8893 -6.9521 24.2625 14.737 -11.8388 22.056 14.6153 -11.3786 22.1942 
14.6592 -11.7622 21.7471 14.222 -9.55802 23.8153 14.0145 -8.92884 24.1467 
14.0332 -9.31017 23.6001 14.5479 -10.9447 22.6913 14.4443 -10.8447 22.3799 
14.6792 -12.4364 20.9294 14.8072 -12.6775 21.0712 14.6745 -12.0882 21.3573 
14.4774 -10.5512 23.1353 14.5937 -10.9483 23.062 12.6789 -8.3388 21.6877 
12.4019 -7.95185 21.6186 12.5005 -8.23314 21.1816 14.2561 -9.35096 24.4426 
14.3386 -9.78501 23.974 14.4062 -9.95731 24.1528 13.6216 0.0190765 29.7106 
13.6967 0.557061 29.8556 13.4781 0.441509 29.4551 14.3891 -10.1469 23.489 
14.1739 -8.94645 24.8675 14.0922 -8.87925 24.5477 14.2099 -8.93706 25.2217 
14.0857 -8.47387 25.3448 14.11 -9.80702 23.0584 14.2404 -10.2805 22.6616 
14.3363 -10.2377 23.0747 13.6191 -0.434639 29.699 13.5331 -0.943077 29.4441 
13.6868 -0.855369 29.8115 12.992 -2.13446 28.1608 13.0729 -1.45359 28.5197 
12.7804 -1.64037 28.0232 13.8573 -8.44744 24.4707 13.6582 -9.75012 21.9419 
13.7378 -10.2415 21.3553 13.9877 -10.4144 21.7729 14.5256 -11.602 21.4822 
14.264 -12.2025 20.0625 14.5005 -12.6569 20.1409 14.2968 -11.3876 21.1455 
14.2966 -11.0836 21.5716 14.2402 -10.6157 22.129 14.6476 -12.6908 20.4932 
14.5153 -12.1809 20.6995 12.1553 -7.57027 21.5942 12.275 -7.65817 21.9529 
12.4993 -7.33037 23.0754 12.3909 -7.57383 22.4551 12.7405 -7.88783 22.7533 
11.7838 -6.8055 21.929 11.9482 -7.19517 21.6709 12.0629 -7.42816 21.3079 
12.3949 -8.16556 20.7419 12.2066 -7.75977 20.8508 12.3451 -8.1062 20.3384 
13.6585 -7.49144 25.3092 13.6354 -7.13176 25.7608 13.414 -7.02971 25.2518 
12.7293 -8.8859 20.2789 12.6233 -8.6933 19.9066 12.7978 -9.05883 19.9107 
13.8137 -9.20977 23.1798 13 -8.74948 21.8288 13.0748 -9.10901 21.3193 
13.3351 -9.20964 21.9517 13.9969 -7.93383 25.8688 13.9076 -7.99436 25.3811 
14.016 -11.1288 20.7648 14.2552 -11.6088 20.752 11.5165 -5.72608 23.0863 
10.7228 -15.2972 11.5224 10.7676 -14.8522 11.5912 10.697 -15.0527 11.2967 
11.304 -3.28221 25.1393 11.4858 -3.4459 25.3829 11.3903 -2.99705 25.4931 
10.8496 -14.4099 11.3242 10.84 -14.3762 10.9802 10.7386 -14.7446 11.1162 
10.6498 -15.1734 10.972 10.8338 -15.486 11.8199 10.7778 -15.7886 11.5575 
11.3315 -2.5852 25.5656 11.3346 -2.16356 25.6721 11.2486 -2.56531 25.3107 
10.8734 -14.486 11.6507 10.986 -14.1607 11.5922 10.9733 -15.5162 12.1747 
10.9015 -15.1283 12.0184 10.9963 -13.9699 10.9001 10.8814 -14.2626 10.682 
[...]
POINT_DATA 853
VECTORS velocity double
0.57689 -3.70218 -0.439568 0.844941 -3.63566 -0.624107 1.04222 -3.42661 -0.602877 
1.19394 -3.1442 -0.396191 1.31276 -2.78786 -0.0340142 1.34574 -2.37242 0.351421 
1.23297 -1.88974 0.606212 0.935266 -1.31858 0.692837 0.523799 -0.757897 0.670593 
0.127106 -0.308129 0.718181 -0.234571 0.0307789 0.948934 -0.506459 0.217075 1.27471 
-0.652681 0.24885 1.49699 -0.663146 0.15493 1.48744 -0.55455 -0.00633292 1.26575 
-0.342081 -0.147052 0.899449 -0.025905 -0.16027 0.528425 0.443638 -0.010942 0.279587 
1.09738 0.239156 0.252605 1.85884 0.344243 0.407282 2.46175 0.193911 0.575336 
2.67679 0.0208502 0.670691 2.47196 0.0948846 0.73794 1.87128 0.539422 0.852553 
0.773886 1.3459 0.993618 -0.642083 2.16837 1.04934 -2.07047 2.62646 0.934423 
-3.23648 2.61618 0.666623 -3.8456 2.39599 0.387534 -4.01008 2.41793 0.171989 
-3.94028 2.85318 -0.0335638 -3.64499 3.45599 -0.245748 -3.23523 3.92726 -0.438301 
-2.7878 4.22198 -0.656581 -2.27221 4.33978 -0.991707 -1.6399 4.25293 -1.5138 
-0.881967 3.91135 -2.1512 -0.0554804 3.27989 -2.77119 0.634298 2.38378 -3.1099 
1.02201 1.31628 -3.09744 1.04799 0.174161 -2.89334 0.888475 -0.987328 -2.62093 
0.708773 -2.02812 -2.2864 0.536158 -2.74722 -1.91376 0.361903 -3.1218 -1.52701 
0.149798 -3.0083 -1.12058 -0.0504214 -2.3841 -0.727109 -0.212814 -1.4288 -0.333981 
-0.375136 -0.230322 0.127901 -0.563471 1.19524 0.707155 -0.751002 2.61782 1.33374 
-0.91538 3.70783 1.91902 -1.03288 4.18581 2.34818 -1.1018 3.91731 2.55021 
-1.13115 2.93027 2.53734 -1.07849 1.27626 2.26629 -0.880224 -0.60952 1.73084 
-0.545992 -2.14257 1.06514 -0.138916 -3.11311 0.421488 0.248229 -3.56084 -0.0853318 
0.473201 -3.92005 -0.420931 0.682624 -3.91121 -0.608115 0.918701 -3.89731 -0.821512 
1.03142 -3.71417 -0.805542 1.19735 -3.453 -0.761799 1.28398 -3.16141 -0.562005 
1.38516 -2.80129 -0.400485 1.39753 -2.50658 -0.1156 1.35714 -2.01224 0.0983037 
1.20918 -1.61359 0.29993 0.975769 -1.09899 0.305257 0.696201 -0.694118 0.361574 
0.295458 -0.180657 0.420108 0.0110119 0.0897167 0.559134 -0.29765 0.447102 0.731351 
-0.48451 0.529269 0.980961 -0.718991 0.706701 1.26362 -0.836039 0.754685 1.42217 
-0.881644 0.746301 1.44008 -0.821825 0.595201 1.3895 -0.705702 0.465982 1.18462 
-0.56844 0.394402 0.987087 -0.344369 0.379795 0.745136 -0.0669738 0.347596 0.58231 
0.40269 0.433512 0.486395 0.763401 0.548353 0.547069 1.34486 0.57923 0.640073 
1.78184 0.571663 0.784444 2.20345 0.427559 0.850796 2.16193 0.473344 0.932511 
2.17979 0.428337 0.921095 1.86838 0.636135 0.974177 1.24631 1.07494 1.06635 
0.503483 1.55305 1.1408 -0.258441 1.97095 1.1617 -1.10743 2.32141 1.15004 
-1.9715 2.48289 1.10235 -2.5877 2.48682 0.992849 -3.07203 2.39184 0.850733 
-3.38605 2.35929 0.667717 -3.45045 2.48268 0.478422 -3.33115 2.69 0.36134 
-3.11944 3.03275 0.211431 -2.97097 3.29674 0.0957677 -2.6929 3.65452 -0.0930132 
-2.46142 3.74103 -0.15835 -2.05142 3.87426 -0.49166 -1.74016 3.85421 -0.77447 
-1.15782 3.65162 -1.32243 -0.713058 3.38271 -1.67321 0.0703703 2.74585 -2.27102 
0.515004 2.26311 -2.55665 1.02065 1.38476 -2.73071 1.22286 0.744219 -2.72726 
1.26169 -0.305228 -2.63669 1.17383 -1.00123 -2.54546 1.01208 -1.96697 -2.36055 
0.885176 -2.58069 -2.17583 0.735206 -3.00202 -1.96108 0.579809 -3.35212 -1.68292 
0.359604 -3.42721 -1.33048 0.192105 -3.33452 -1.01717 -0.00863321 -2.83161 -0.696404 
-0.207997 -2.14946 -0.317522 -0.389453 -1.05253 0.0851254 -0.546122 -0.087246 0.49252 
-0.669445 1.00919 0.886249 -0.769392 1.82246 1.22254 -0.87412 2.78196 1.62202 
-0.955386 3.12169 1.88847 -1.01682 3.47561 2.12798 -1.06855 3.41365 2.28865 
-1.10026 2.75903 2.31664 -1.10114 1.96798 2.28001 -1.02465 0.661263 1.98846 
-0.926201 -0.315176 1.75842 -0.667586 -1.77688 1.20938 -0.415895 -2.62159 0.795144 
-0.0878493 -3.37427 0.273948 0.140958 -3.64448 -0.0112051 -1.01688 2.44864 1.96016 
-0.922432 2.26307 1.6598 -1.02417 1.29959 1.9185 -0.789317 0.804678 1.15705 
-0.929882 1.37413 1.59446 -0.821087 -0.864629 1.39272 -0.528533 -1.23056 0.461319 
-0.802464 -0.250346 1.19952 -0.357891 -2.85973 0.565675 -0.0945825 -3.03119 -0.345122 
0.753592 -4.21085 -0.871392 0.225166 -3.94453 -0.259789 0.84029 -3.71769 -1.70474 
0.408858 -3.86145 -1.10338 0.627789 1.46258 1.23513 1.3302 0.103279 -2.09521 
1.42236 -1.37467 -2.19989 -0.454039 -2.30454 0.493633 1.11441 -3.06007 -2.02694 
1.44846 0.957242 1.1385 -0.448391 1.99805 1.27812 1.48766 -2.23215 -0.74659 
1.37377 -3.19982 -1.035 1.15097 -3.89486 -1.18253 -0.608066 1.17427 0.640023 
-1.13939 1.41532 1.29261 -0.387358 3.33133 -2.1799 0.490142 1.59438 -1.72009 
-2.3892 4.02322 -0.496576 1.20293 0.475063 -2.83235 1.26185 0.976812 1.16552 
-1.43449 2.14989 1.30795 1.26418 -1.21901 -0.375713 -0.0304719 0.657817 0.14069 
-1.59521 3.15833 0.0252917 -2.11205 3.09565 0.418785 0.83635 -0.475828 -0.151056 
1.38258 -0.212911 -2.44411 -0.678578 2.75043 -0.935929 -0.998067 1.4468 1.10231 
-0.666078 1.06006 0.865978 0.0713066 -3.72955 -0.315117 -0.215536 2.64942 -1.62596 
-2.01188 3.40063 0.101043 0.359801 1.51709 1.32511 0.632994 1.04098 1.08014 
-2.01768 2.04638 1.18372 -1.01633 1.23819 1.11683 -2.36416 2.62545 0.614642 
-0.0546679 0.972738 0.842443 -2.34775 2.17495 0.880031 1.52025 -1.30484 -1.73577 
0.586562 -4.24935 -0.980292 -0.315444 1.5802 1.3597 0.946846 1.13456 -2.14918 
1.14388 -0.0437758 -1.30977 -2.33345 3.0045 0.432276 -1.20215 3.10976 -0.509326 
0.0257104 1.47305 -0.750295 -1.51195 2.49019 0.76284 1.48337 -2.45906 -1.5938 
-1.61762 2.24803 0.908137 -1.0644 2.23645 0.357055 1.35599 -3.31455 -1.53182 
1.23097 -3.63675 -1.66041 -0.743337 0.917991 0.954692 -1.23161 1.67372 0.979376 
-1.0039 1.10015 1.26768 -1.32094 1.82515 1.12159 0.571499 0.847786 0.836342 
-0.306131 1.28679 1.10882 -1.13439 1.61456 1.04083 -0.192188 0.797924 0.725215 
-0.730882 1.30169 0.917387 -1.57097 1.94255 0.924297 -2.65949 2.19599 0.90242 
-1.5838 1.83011 1.15719 -2.60175 2.50012 0.638661 -0.570491 1.85593 -0.113367 
0.44419 0.271389 -0.246298 0.763389 0.291702 -0.856026 -1.79189 2.28176 0.834599 
1.44655 -1.12519 -1.16789 -1.19398 1.67539 1.19045 -1.26952 2.19259 0.77182 
1.33067 -2.52146 -2.03307 1.00225 -4.10267 -1.45661 -0.756803 1.57602 1.27788 
-1.5991 2.44313 0.864477 -0.320084 0.0717349 0.78683 -0.437252 0.342927 0.839818 
-0.208994 0.1281 0.66507 -0.563657 3.38754 -1.93901 -0.499796 3.06987 -1.63646 
-0.315299 3.05689 -1.94757 -0.222063 0.348365 0.663077 -0.0229009 0.0829963 0.531639 
0.184691 0.129356 0.430373 0.186247 -0.103861 0.382238 -0.443897 0.0996905 0.944134 
-0.197976 -0.176144 0.704632 -0.157386 3.06615 -2.25287 0.019313 3.0011 -2.51095 
-0.27531 3.35995 -2.43585 -0.76876 0.51836 1.29993 -0.619513 0.207573 1.22016 
-0.692128 0.286007 1.3554 -0.623115 0.0790626 1.40194 -0.734686 0.352787 1.43847 
-0.455037 0.668444 0.790596 -0.331219 0.656876 0.729101 -0.533753 0.142012 1.07738 
-0.648957 0.43859 1.09181 -0.835246 0.809182 1.16126 -0.77812 0.777148 1.08367 
-0.460598 -0.0862036 1.0927 -2.55885 3.70694 -0.124539 -2.40505 3.39696 0.158025 
-2.31289 3.46021 0.108984 -0.545344 0.63711 0.86286 -0.714136 0.988196 0.903352 
1.90093 0.436366 0.590626 2.1596 0.381605 0.665012 2.19752 0.292226 0.498318 
-2.44492 3.89917 -0.331923 -2.55402 4.12673 -0.576218 -2.62303 3.96235 -0.380286 
0.952802 1.23752 1.24378 0.527752 1.4896 1.28089 0.987652 1.24727 1.20622 
2.36871 0.297778 0.722051 2.01453 0.514367 0.839819 1.56285 0.58968 0.716119 
1.62637 0.450596 0.512257 2.47481 0.231926 0.761157 2.62471 0.0901784 0.632 
0.735415 0.297129 0.353455 0.747435 0.111225 0.234673 0.455579 0.208824 0.36421 
0.162262 0.36974 0.506906 -0.415895 0.899324 0.785632 -0.126666 0.600682 0.652291 
1.29788 0.427596 0.435071 0.951479 0.405113 0.413852 1.05238 0.550417 0.561882 
0.603615 0.493577 0.505337 -2.42326 2.12449 1.02911 -2.99907 2.27933 0.807228 
-2.8137 2.24593 0.928238 0.695376 0.699679 0.691386 0.956634 0.719291 0.751752 
1.48164 0.326696 0.318779 0.243318 2.2987 -2.05349 0.500684 1.99093 -2.18674 
0.26843 2.54459 -2.40224 0.209508 1.03911 0.976538 0.277586 0.901098 0.839311 
-0.184838 1.14893 0.98614 -1.07631 1.25428 1.29756 -0.916963 0.86074 1.32997 
-0.96588 0.962695 1.37362 0.277029 0.797626 -0.496474 0.568816 0.375698 -0.577046 
0.422464 0.926403 -0.884893 -0.596338 0.251138 1.40962 -0.612232 0.444234 1.28599 
-0.68875 0.469907 1.40142 -0.141473 0.27564 0.626438 0.0143974 0.278234 0.403014 
-0.196692 0.561037 0.479954 -0.498593 0.381596 1.12804 -0.603831 0.644898 1.10236 
-0.758311 0.44854 1.49948 -0.673854 0.21339 1.52287 -0.734098 0.471233 1.4697 
-0.375754 0.295872 0.97927 -0.386379 0.145502 1.11435 -0.934471 2.92548 -0.717761 
-0.93686 3.24566 -1.12366 -1.20825 3.42319 -0.923205 0.0646781 -0.104309 0.640458 
-0.103378 0.0641396 0.733088 -0.0571651 -0.126088 0.808198 1.00799 -3.95565 -0.966519 
0.868215 -4.05756 -0.873637 0.973409 -4.12641 -1.08928 -0.265379 0.248249 0.834843 
0.224703 -0.276883 0.586432 0.141223 -0.0199493 0.479303 0.321183 -0.518593 0.675405 
0.41087 -0.492289 0.554916 -0.404742 0.747736 0.661828 -0.540103 0.78329 0.86776 
-0.400093 0.500234 0.858509 1.08449 -3.80585 -0.940599 1.1914 -3.65456 -0.974261 
1.11455 -3.62037 -0.816101 1.44953 -2.8768 -1.29567 1.36999 -3.29981 -1.33694 
1.42135 -2.94194 -1.56877 0.176024 0.191195 0.252199 -0.832453 1.7154 0.514588 
-1.02927 1.8199 0.771249 -0.853544 1.37922 0.901487 -0.787792 0.73144 1.36493 
-0.998739 1.05302 1.3845 -0.848613 0.651178 1.42867 -0.925551 1.09675 1.29649 
-0.842694 1.04137 1.20035 -0.70736 0.970754 1.01147 -0.778045 0.466365 1.47428 
-0.868615 0.749792 1.45311 -0.904672 3.5035 -1.52041 -0.709278 3.12279 -1.34217 
-0.103022 2.12002 -1.21785 -0.436433 2.66546 -1.25381 -0.35537 2.16561 -0.825074 
-0.580096 3.59296 -2.20027 -0.802765 3.64349 -1.8835 -1.07055 3.82568 -1.71082 
-1.46741 3.7922 -1.05107 -1.3942 3.97769 -1.43573 -1.72269 4.07881 -1.13408 
0.577765 -0.253013 0.0784392 0.757214 -0.561559 0.105169 0.668532 -0.110651 -0.236123 
-1.68694 3.55632 -0.410592 -1.92599 3.87199 -0.59878 -1.85782 3.5977 -0.278609 
-0.338069 0.975881 0.348941 -0.88654 2.51323 -0.295516 -1.13425 2.68585 -0.0735683 
-0.838554 2.08343 0.119941 0.618922 -0.754525 0.545926 0.496565 -0.41435 0.369754 
-1.0928 1.53554 1.17646 -0.992602 1.16597 1.3404 0.265044 2.77149 -2.70547 
2.35038 0.259674 0.831794 2.01806 0.538127 0.958048 2.16921 0.379099 0.866625 
1.21699 0.64455 -2.80515 1.30916 0.321577 -2.58998 1.28721 0.200553 -2.67768 
1.59875 0.831017 1.0225 1.54154 0.835866 0.966712 1.90292 0.571427 0.91264 
2.22565 0.267953 0.787755 2.45662 0.209569 0.806355 2.62184 0.0163353 0.70142 
1.23303 0.100346 -2.74307 1.16792 -0.0752954 -2.76326 1.14362 0.409104 -2.88575 
1.67692 0.796383 1.05552 1.32882 1.03538 1.11615 2.43416 0.258677 0.815342 
2.20175 0.433495 0.922471 1.09568 1.1527 1.02041 1.39108 0.905766 0.92695 
0.549972 1.52197 1.19256 0.86321 1.32849 1.10332 0.953145 1.27796 1.15786 
1.88643 0.657152 1.02418 2.19966 0.44313 0.898477 0.634419 1.46425 1.07682 
0.14587 1.75875 1.15562 0.176408 1.74069 1.09551 0.0774591 1.78763 1.03763 
-0.395324 2.0465 1.1117 -1.53962 2.47825 1.06729 -1.3689 2.45649 1.01596 
-0.957368 2.29264 1.1017 -0.669652 2.15549 1.16957 0.198704 1.69096 1.27087 
0.0960636 1.77272 1.21814 0.183562 -3.7891 -0.114856 0.384359 -3.99402 -0.381612 
0.29685 -3.81047 -0.214957 1.36901 0.980528 1.17196 1.84147 0.696187 1.04787 
1.80166 0.708013 1.04829 -0.349754 1.99709 1.21388 -0.88181 2.20866 1.21444 
-2.70867 2.67364 0.811679 -2.11747 2.58196 1.00168 -2.6208 2.60451 0.908534 
-2.35601 2.49905 1.04143 -2.89513 2.55425 0.862798 -2.79688 2.44991 0.944066 
-3.28542 2.506 0.727441 -0.20329 -3.1325 0.0856945 -0.275111 -2.73422 0.0805175 
-0.0144566 -3.43939 -0.328517 -3.61533 2.50175 0.519448 -3.55145 2.4384 0.609845 
-1.50177 2.41769 1.14244 -1.68159 2.33466 1.21716 -1.25252 2.285 1.23414 
-0.890085 2.09088 1.32118 0.510315 -4.17575 -0.619476 0.580035 -4.08392 -0.601647 
-0.0899043 1.77952 1.32927 0.992771 -2.77085 -2.13448 1.00022 -3.41779 -1.9005 
0.900226 -3.12525 -1.99458 -2.78498 3.93937 -0.360573 -2.5454 3.34879 0.168826 
-2.21515 3.05684 0.42987 -3.02026 4.10375 -0.547269 -2.96317 3.81318 -0.275642 
-3.14482 3.607 -0.164285 -2.84638 3.50486 -0.0107175 -2.37565 4.18023 -0.706783 
-2.22514 3.97226 -0.506951 -2.15407 4.09458 -0.722915 -3.07173 3.16102 0.150337 
-2.77456 2.86109 0.404889 -2.69551 2.97225 0.363825 -1.98664 4.11689 -0.897187 
-1.96498 4.32325 -1.23399 -1.28353 4.12046 -1.82177 -1.02919 1.9369 1.9557 
-1.07439 2.12427 2.1455 -1.06487 2.53683 2.14027 -0.853674 2.03519 1.4503 
-0.89675 2.566 1.6383 -0.829636 2.35625 1.44408 -0.661214 0.221991 0.788611 
-0.718086 0.927825 0.986959 -0.625185 0.57733 0.734616 -0.470649 3.63808 -2.47705 
-2.5456 4.30165 -0.798661 -1.24313 1.94058 1.00801 -1.38934 2.3415 0.780621 
-1.37268 2.13591 0.978163 -0.710307 1.34253 1.0225 -0.794636 1.44845 1.22991 
-3.81355 2.49779 0.308656 -3.79424 2.40961 0.410184 -3.46821 2.4002 0.559964 
-2.60218 2.24917 1.03204 -2.34656 2.2987 1.11723 -1.75701 2.08562 1.27026 
-0.501043 -1.8168 0.482735 -0.658107 -1.30172 0.87555 -0.676878 -0.779178 0.852429 
-3.70832 2.40002 0.508631 -3.96483 2.35649 0.274141 -4.00169 2.59115 0.0726717 
-3.77116 2.64438 0.221452 -3.25919 2.36207 0.758506 -3.37665 3.20758 0.0228235 
-3.30919 3.41824 -0.0875441 -3.44287 3.70633 -0.33591 -3.25508 2.89429 0.254516 
-3.56384 3.02499 0.0673126 -3.8213 3.15929 -0.144352 -3.68677 2.80917 0.151605 
-0.978405 1.87721 1.78042 -0.971995 1.3081 1.72652 -3.38867 2.56886 0.42815 
-0.889004 0.696976 1.44358 -0.874186 1.10741 1.4123 -0.797707 0.231263 1.1641 
-1.92451 2.07025 0.914417 -2.15087 2.2723 0.805236 -2.47921 2.32805 0.758631 
-0.100341 -2.56465 -0.519877 -0.0412581 -2.91794 -0.56087 -0.189567 -2.50522 -0.277975 
-0.930279 1.81165 1.62941 -0.8712 1.62289 1.44505 -2.53403 2.18345 0.892522 
-2.95978 2.36554 0.685967 -3.04643 2.32781 0.716918 -2.0441 3.68218 -0.234979 
-1.81355 3.30471 0.076954 0.0973789 -3.3131 -0.763042 0.0834243 -3.11112 -0.846723 
0.326972 2.85223 -2.99267 0.564735 2.38155 -2.85818 -2.26608 3.60939 -0.0460006 
-2.24157 3.78624 -0.259176 0.959326 -1.21306 0.493215 0.848014 -0.923778 0.360003 
0.806893 -1.01328 0.545263 0.72988 -1.02359 0.68501 1.22247 -0.6569 -0.857721 
0.973503 0.0978766 -1.07505 1.0485 -0.45301 -0.649661 1.10016 -1.49399 0.508686 
1.10618 -1.36238 0.304543 1.21975 -1.7516 0.455971 1.10982 -1.61823 0.669856 
1.14789 0.651988 -2.11434 1.17585 0.823459 -2.45196 0.990863 1.2747 -2.44926 
1.3541 -2.20812 0.257031 1.30037 -1.97363 0.374668 1.31089 -2.14082 0.498563 
1.43455 -2.64564 -0.545746 1.43293 -2.42161 -0.333284 1.39743 -2.64773 -0.257287 
1.3437 -2.58482 0.17219 1.36425 -2.64826 -0.0465975 1.37319 -2.44776 0.108379 
1.39781 -2.28745 -0.0334179 1.28929 -1.78678 0.200199 1.32081 -3.20951 -0.749931 
1.39152 -2.95296 -0.696884 1.33841 -2.99895 -0.490152 1.42648 -1.73492 -0.527411 
1.35008 -1.74658 -0.128975 1.42338 -2.08738 -0.272088 1.1333 1.03962 -2.90751 
1.02628 1.43048 -2.95231 1.15561 1.008 -2.73122 0.748011 1.69688 -2.36077 
0.791421 1.85455 -2.6866 -0.969106 2.35077 1.80214 0.839708 1.89777 -2.94169 
0.869007 1.87239 -3.13932 1.13388 0.823699 -2.95055 1.3403 -0.768877 -2.45645 
1.33088 -0.281924 -2.55613 1.42302 -0.801826 -2.3057 1.34932 -2.81158 -0.226573 
1.31518 -1.22731 -2.38621 1.22793 -0.594164 -2.60348 1.49134 -1.36926 -1.99715 
1.46654 -0.733019 -2.12805 1.27598 -3.42166 -0.903221 1.28193 -3.56286 -1.15262 
1.07355 0.761648 -3.0111 1.29567 -2.99019 -0.334899 1.4557 -2.7457 -0.930242 
1.24184 -1.51407 0.0497203 1.10336 -0.419824 -2.71844 1.24063 -3.15934 -0.471258 
1.25769 -2.97773 -0.232559 1.10534 -1.15771 0.0377544 1.12117 -3.44539 -0.665281 
1.18815 -3.30102 -0.57909 1.12281 -3.29429 -0.522071 1.84462 0.652238 0.988506 
0.98249 -3.81093 -0.826826 1.03481 -3.57922 -0.710882 0.9502 -3.68122 -0.717852 
0.95071 -3.53905 -0.636027 1.25069 -3.30046 -0.674729 0.756864 -3.79497 -0.625593 
0.801938 -3.92411 -0.724593 0.879255 -3.78213 -0.71976 0.632119 -3.80959 -0.523122 
0.515525 -3.80544 -0.415659 0.595864 -3.94104 -0.541449 0.717815 -3.69288 -0.555475 
1.09983 -1.5131 -2.45628 1.26497 -1.72815 -2.31597 1.18215 -2.18367 -2.25853 
0.420537 -3.66222 -0.282443 0.369095 -3.74977 -0.259172 1.36717 -3.02844 -1.7478 
1.42771 -2.50477 -1.83676 1.28898 -3.19173 -1.8364 1.19669 -3.40981 -1.84276 
1.21889 -2.80702 -2.0589 0.708525 -4.05115 -0.702018 0.189953 -3.61071 -0.0426211 
0.0614595 -3.38365 0.149796 0.0221075 -3.42701 0.173935 0.0227103 -3.61653 0.0747924 
0.0324189 -3.53824 0.119127 -0.116425 -3.24888 0.353774 -0.2579 -3.02687 0.535547 
-0.2987 -2.86809 0.635045 -0.058267 -3.5456 0.108623 -0.195898 -3.22716 0.386539 
-0.622129 -1.9233 1.17112 -0.532187 -2.28204 0.976422 -0.474445 -2.41306 0.918188 
-0.347232 -2.7004 0.733004 -0.909723 -0.439829 1.75865 -0.818572 -1.02872 1.50867 
-0.772145 -1.26566 1.45693 -0.727184 -1.43933 1.40427 -0.997824 0.307013 2.02393 
-1.00477 0.359632 1.99716 -0.607583 -1.98696 0.970574 -0.556784 -2.22327 0.958632 
-0.733867 -1.46296 1.27973 1.52307 -1.90645 -1.63353 1.53075 -1.83045 -1.27359 
1.50946 -2.37642 -1.24301 -0.403331 -2.70532 0.726985 0.157184 -3.59893 -0.721504 
0.252506 -3.8892 -0.709411 -0.414212 -2.62257 0.540576 -0.645545 -1.66087 0.944433 
1.39163 -1.9233 -2.11669 0.785071 1.2634 1.27883 -0.956677 0.0564457 1.76113 
-0.881376 -0.598751 1.60321 -0.982293 0.178189 1.88426 0.971139 -0.417742 -2.7632 
1.02727 -0.91816 -2.62123 0.943197 -1.4605 -2.49465 -0.924977 0.473026 1.56927 
0.862145 -1.91939 -2.3655 0.804271 -1.53096 -2.46446 0.811256 -2.31211 -2.23682 
0.933722 -2.27822 -2.2753 -0.686482 -0.201738 0.847887 -0.562442 -0.542446 0.516279 
0.720825 -2.58001 -2.1086 0.810327 -2.81634 -2.07032 0.414051 -4.17575 -0.622584 
0.668517 -4.28965 -0.924492 0.562401 -3.0596 -1.80387 0.64371 -2.8635 -1.95422 
0.67599 -3.20871 -1.83556 0.266448 -3.57163 -1.0299 0.142082 -3.88549 -0.275389 
0.336033 -4.08407 -0.667541 0.615876 -2.42329 -2.1013 1.08266 -2.47865 -2.21502 
0.463259 -3.45092 -1.48685 0.36613 -3.28807 -1.43343 0.469206 -3.21084 -1.62927 
0.452757 -2.98615 -1.72175 0.176436 -3.18582 -1.0749 0.26519 -3.25883 -1.24946 
0.282008 -3.41301 -1.18082 -0.335599 -2.24049 0.0818511 0.263646 -3.13971 -1.33004 
0.0686636 -2.93588 -0.901531 -0.345353 -1.84633 0.0178832 -0.447019 -1.14927 0.229369 
-0.319343 -1.57277 -0.0821658 -0.121003 -2.26703 -0.537905 -0.0305717 -2.62511 -0.715345 
-0.817571 -0.579913 1.29746 -0.133603 -1.94356 -0.535081 -0.21242 -1.80746 -0.341098 
-0.302266 -1.24348 -0.12272 -0.382368 -0.685873 0.0903486 -0.291961 -0.855602 -0.115462 
0.644107 -3.92384 -1.41315 0.548368 -3.68036 -1.46181 0.696836 -3.56582 -1.68366 
0.0403239 -2.73788 -0.917474 -0.948034 0.232555 1.68179 1.14221 -3.87262 -1.58764 
1.08527 -3.69129 -1.76044 -1.10037 1.72879 2.30306 -1.07262 1.3414 2.15322 
-1.05406 0.947028 2.12449 -1.02853 0.895815 1.96206 -1.1051 2.36344 2.30767 
-1.07621 1.71349 2.1457 -1.12044 2.41482 2.41002 -1.1211 2.93143 2.45227 
-1.12004 2.18392 2.43823 -1.05273 2.95962 2.15114 -1.08577 3.13046 2.30515 
-1.10923 3.36042 2.45481 -1.0871 3.67839 2.41895 -1.05835 3.8318 2.34291 
-1.02388 3.82612 2.22792 -1.04438 3.43312 2.20652 -1.02108 3.03983 2.0586 
-1.07183 4.14355 2.47566 -0.981732 4.03479 2.1618 -0.980044 3.67443 2.06944 
-1.12276 3.51054 2.57214 1.279 0.507432 -2.49372 -0.986196 2.83551 1.9217 
-0.94671 2.74356 1.79752 -0.544453 0.475659 0.553159 -0.625914 1.05116 0.801842 
0.790936 -3.299 -1.87486 -0.465889 0.452563 0.402401 -0.460839 -0.145987 0.306425 
-0.677167 1.60114 0.99426 -0.465558 -0.635347 0.277276 -0.940309 3.4088 1.90873 
-0.887717 3.20071 1.73904 -0.919027 3.02036 1.77561 -0.985953 3.29434 2.00397 
-0.751455 2.18128 1.24644 -0.82341 2.74584 1.50455 -0.836807 3.22406 1.63636 
0.398087 -3.61575 -1.27299 -0.659829 1.93535 1.02237 1.54466 0.761711 0.994451 
-0.141408 -3.37706 0.119457 -2.18919 2.38243 1.13171 1.11891 0.767081 0.850129 
1.2962 0.789417 0.93473 0.92588 1.03584 1.14617 1.5029 -1.23569 -1.42877 
1.48807 -1.63102 -0.956622 1.04217 0.608308 -1.77404 1.26249 -0.0152543 -1.67688 