# vtk DataFile Version 3.0
vtk output
ASCII
DATASET POLYDATA
POINTS 853 float
14.3655 -0.248303 30.4718 14.2798 -1.20878 30.2857 14.2436 -2.20366 30.0814 
14.2388 -3.24377 29.7911 14.2381 -4.37927 29.3941 14.2631 -5.53332 28.8545 
14.2751 -6.62997 28.1165 14.2775 -7.71511 27.1351 14.3165 -8.72831 26.0295 
14.3753 -9.63147 24.9831 14.4486 -10.5259 23.9761 14.5247 -11.3958 23.04 
14.5863 -12.25 22.1114 14.5807 -13.0848 21.1282 14.5026 -13.8426 20.1484 
14.4268 -14.5307 19.0721 14.2442 -15.0784 17.9351 13.9595 -15.49 16.7584 
13.6118 -15.7701 15.5191 13.1245 -15.9786 14.2941 12.5341 -16.1034 13.1775 
11.9701 -15.9906 12.1863 11.5664 -15.5025 11.4541 11.3714 -14.5744 11.0616 
11.3096 -13.2372 10.9684 11.2838 -11.8139 11.1902 11.3754 -10.5917 11.6996 
11.686 -9.6343 12.4464 12.0864 -8.9005 13.3787 12.2321 -8.284 14.407 
12.0457 -7.76231 15.4395 11.8231 -7.42844 16.415 11.7437 -7.23747 17.3066 
11.7331 -7.03396 18.1655 11.6953 -6.70696 19.0253 11.6045 -6.18853 19.8624 
11.5069 -5.52193 20.6871 11.4437 -4.69409 21.5597 11.4554 -3.80194 22.4842 
11.5133 -2.8807 23.4526 11.6495 -1.8837 24.3758 11.907 -0.901804 25.1413 
12.2342 0.0448287 25.7279 12.5409 0.924493 26.1873 12.8037 1.76406 26.6398 
13.0386 2.68491 27.0575 13.2318 3.66557 27.449 13.4235 4.64496 27.8688 
13.6947 5.6412 28.3108 14.1011 6.67257 28.7728 14.6009 7.58463 29.2492 
15.1283 8.13413 29.7413 15.5804 8.17531 30.1806 15.814 7.68178 30.5118 
15.8074 6.66981 30.742 15.6041 5.2515 30.8668 15.3036 3.82704 30.8834 
14.994 2.63084 30.8023 14.7059 1.60356 30.7272 14.4919 0.673285 30.6417 
14.3303 0.18378 30.0853 14.2564 -0.43429 30.0695 14.1796 -1.20954 29.7142 
14.1788 -1.78503 29.7093 14.1351 -2.66138 29.3799 14.1347 -3.38552 29.2396 
14.0726 -4.17844 28.7499 14.1188 -4.86301 28.5723 14.0938 -5.75938 27.9349 
14.1356 -6.53089 27.4478 14.0689 -7.1912 26.6614 14.0991 -7.8361 26.0229 
14.1334 -8.63171 25.104 14.2195 -9.27842 24.4789 14.1948 -9.82018 23.6865 
14.2855 -10.4331 23.1884 14.2897 -11.0943 22.3608 14.2634 -11.6625 21.6635 
14.2296 -12.2125 20.8711 14.1958 -12.732 20.3847 14.0809 -13.3096 19.5302 
13.902 -13.686 18.8665 13.6972 -14.0371 17.9805 13.5101 -14.3781 17.332 
13.2133 -14.6867 16.363 12.9439 -14.762 15.6792 12.6977 -15.0241 14.7982 
12.3856 -15.0862 13.9952 12.0377 -15.2452 13.1274 11.7918 -14.9851 12.6337 
11.5586 -14.9212 12.0638 11.4116 -14.4682 11.7364 11.3364 -13.7099 11.583 
11.2939 -12.9217 11.5877 11.2375 -12.1763 11.6148 11.2343 -11.43 11.8611 
11.2684 -10.7452 12.4369 11.3406 -10.2512 12.9115 11.4405 -9.80628 13.6108 
11.6066 -9.39324 14.298 11.7072 -9.01019 15.1402 11.7847 -8.81875 15.8072 
11.8209 -8.58137 16.5902 11.8952 -8.37923 17.1328 11.9559 -8.06222 17.9695 
12.022 -7.98404 18.504 12.0271 -7.52467 19.4205 11.962 -7.20145 19.9408 
11.9036 -6.58353 20.7379 11.832 -6.20107 21.264 11.797 -5.36038 22.1495 
11.7623 -4.78844 22.6717 11.8024 -3.97168 23.4951 11.8076 -3.40415 24.0626 
11.8894 -2.41517 24.8963 12.0382 -1.80416 25.3524 12.2445 -0.913477 25.9288 
12.4279 -0.27374 26.2731 12.5419 0.429501 26.5365 12.7876 1.03089 26.8361 
12.9914 1.83518 27.1426 13.2081 2.33866 27.463 13.3334 3.12391 27.6919 
13.5601 3.80629 27.9709 13.759 4.76058 28.2647 14.0219 5.45277 28.5675 
14.2748 6.26946 28.8732 14.5253 6.81548 29.1346 14.8583 7.43826 29.4544 
15.0902 7.53076 29.7083 15.3292 7.65274 29.9454 15.4868 7.42809 30.1701 
15.4998 6.73478 30.3549 15.477 5.97756 30.5455 15.2839 4.93423 30.4874 
15.1969 4.16058 30.5766 14.9369 3.08452 30.4636 14.7669 2.35096 30.5114 
14.5614 1.55863 30.2646 14.4717 1.00441 30.3082 15.1433 6.75719 29.8723 
14.8794 6.85439 29.5358 15.1045 5.66139 30.1083 14.493 5.81374 29.1705 
14.8166 6.01763 29.6125 14.8356 3.98252 30.0666 14.0779 4.31922 28.7494 
14.575 4.74634 29.4713 14.5079 2.40459 29.9051 13.6834 2.80702 28.3059 
14.0204 -0.327953 29.3128 14.2223 1.01757 29.6448 12.976 0.155934 27.3286 
13.3181 1.45015 27.8335 11.366 -13.0766 12.2108 12.4419 -4.33544 24.7372 
12.4849 -2.78728 25.8471 14.2597 3.18982 29.2142 12.8013 -1.02027 26.8553 
11.4994 -13.9701 12.3964 11.2789 -12.0677 12.2926 13.7355 -4.54221 27.5377 
13.844 -3.13379 28.3782 13.8719 -1.73782 28.8209 13.7777 -9.52569 22.7844 
13.6265 -11.5175 20.2216 11.646 -5.54788 21.4494 12.4237 -5.8085 23.3559 
11.9034 -7.43035 18.8012 11.6841 -2.70806 24.2438 11.7854 -13.9876 13.4598 
11.3483 -11.3281 13.3068 13.7372 -5.97286 26.5647 13.7549 -8.43988 23.986 
12.5338 -8.3786 20.3265 12.3994 -9.15031 18.6742 13.7673 -7.00628 25.6892 
12.1321 -3.23673 24.9086 12.3949 -7.13376 21.8201 13.7551 -10.4484 21.6248 
12.9629 -12.9504 17.5575 13.9413 1.79158 28.9021 12.1337 -6.22757 22.1727 
12.3394 -8.48638 19.3316 11.5306 -12.9444 12.9945 12.1152 -13.7242 14.6588 
11.4796 -10.8354 14.4928 13.3818 -12.291 18.9657 12.1709 -9.73765 17.1543 
12.5035 -13.4707 16.1602 11.8323 -10.3028 15.8479 12.9141 -3.91074 26.0279 
13.6635 0.574545 28.5899 11.6624 -12.5001 14.1207 12.2451 -4.92747 23.804 
12.9826 -5.53834 25.0342 12.2016 -9.24624 17.8968 12.4211 -7.65779 21.0403 
12.9757 -7.17153 23.3395 13.0074 -9.71403 20.2135 13.2417 -3.1957 27.0385 
12.766 -10.6623 18.612 13.1162 -8.93887 21.5783 13.4495 -2.38532 27.7772 
13.3074 -1.55892 27.7745 13.3543 -13.0053 18.3174 12.8357 -11.7363 18.0926 
13.697 -12.2387 19.7267 13.1643 -11.1991 19.4627 12.447 -14.0474 15.3844 
12.1047 -12.8351 15.4738 12.1188 -11.855 16.2802 12.8885 -13.6554 16.8776 
12.4927 -12.5716 16.8803 12.3596 -11.1795 17.0907 11.5775 -10.0791 15.0494 
11.7488 -11.2861 15.3858 11.9455 -9.69644 16.4332 13.1315 -8.22144 22.5414 
13.6162 -7.42711 24.6998 13.2454 -6.42454 24.7185 12.509 -10.5861 17.7872 
13.2474 -4.95421 26.1306 13.5692 -10.7761 20.7452 13.225 -9.67492 20.9886 
12.8175 -2.08227 26.6704 13.4506 -0.637836 28.1757 11.7777 -12.1789 14.9362 
12.9005 -10.1211 19.5606 14.0864 -14.38 18.4884 13.8268 -13.9479 18.3862 
13.9326 -14.4817 18.0079 11.7233 -5.86366 21.3308 11.9668 -6.25139 21.6598 
11.8384 -5.84614 21.7465 13.6278 -14.2143 17.6915 13.8753 -14.7689 17.5906 
13.7338 -14.9466 17.0933 14.0968 -15.2966 17.3554 14.1765 -14.1369 18.9715 
14.3599 -14.8284 18.5071 11.7063 -5.43233 21.7794 11.6131 -5.05433 21.8735 
11.5449 -5.1945 21.4475 14.1534 -13.0454 19.9694 14.3104 -13.6145 19.825 
14.3558 -13.2729 20.3175 14.5333 -13.4691 20.6491 14.4049 -12.9602 20.7255 
13.3689 -13.5993 17.7836 13.2424 -13.7331 17.4678 14.2547 -13.9046 19.3744 
13.9858 -13.4843 19.2043 13.76 -12.8674 19.2706 13.6629 -13.0296 18.9716 
14.4707 -14.1992 19.6214 11.9999 -8.02731 18.2778 12.1607 -8.5951 18.3047 
12.1956 -8.49624 18.5964 13.5239 -13.5252 18.1661 13.1812 -12.9809 17.9648 
12.7225 -15.577 14.1098 12.4919 -15.6272 13.6314 12.8384 -16.0587 13.7203 
11.9582 -7.68634 18.6394 11.8173 -7.25196 18.5313 11.8765 -7.55942 18.3283 
11.5334 -13.4833 12.7345 11.4396 -13.0277 12.5525 11.4285 -13.4562 12.3078 
12.2477 -15.661 13.1422 12.1882 -15.1441 13.5262 12.5472 -15.0497 14.4052 
12.9198 -15.52 14.5686 12.0295 -15.6318 12.7174 12.2354 -16.0882 12.6693 
13.4318 -15.2458 16.0084 13.8035 -15.6488 16.1472 13.5801 -15.1181 16.5286 
13.3749 -14.57 16.8482 12.9188 -13.3503 17.2054 13.16 -13.9849 17.0878 
13.1154 -15.4275 15.0843 13.2135 -15.2162 15.5915 12.873 -14.9509 15.2724 
13.0788 -14.7488 15.9805 11.5328 -10.3915 14.8021 11.5428 -9.75314 14.7103 
11.4846 -10.0217 14.389 12.6708 -14.4091 15.5274 12.5476 -14.5085 15.0959 
13.3793 -15.8785 14.8937 12.0422 -5.56684 22.6281 12.0412 -5.27264 22.9592 
11.7827 -5.12263 22.3772 12.274 -13.5115 15.4309 12.4659 -13.7862 15.7326 
12.2751 -13.1097 15.8265 13.6606 -11.8868 19.9905 13.9391 -12.4767 20.0361 
13.9506 -12.167 20.3444 13.3392 -7.29273 24.0863 13.4004 -6.91588 24.6137 
13.0825 -6.73642 24.0064 14.5585 -11.8228 22.5819 14.4355 -11.2936 22.6828 
14.4525 -11.6674 22.2714 14.2065 -9.53385 24.0878 14.0549 -8.90804 24.3408 
14.0055 -9.19089 23.8254 14.4073 -10.882 23.1299 14.2731 -10.6899 22.8109 
14.4469 -12.3468 21.4803 14.6012 -12.6738 21.626 14.4513 -11.9919 21.9019 
14.3786 -10.5183 23.5259 14.4875 -10.9686 23.4954 12.4245 -7.40576 21.4634 
12.1276 -6.8815 21.231 12.1381 -7.10406 20.8508 14.3056 -9.45754 24.7141 
14.3316 -9.83261 24.2806 14.4115 -10.0706 24.4832 14.0714 -1.38906 29.3577 
14.1097 -0.866107 29.521 13.9299 -1.0141 29.041 14.3285 -10.1306 23.8319 
14.2769 -9.11389 25.1158 14.1709 -8.95961 24.7629 14.3428 -9.18756 25.4971 
14.2507 -8.71754 25.5762 14.0133 -9.62117 23.3466 14.0963 -10.0799 23.0174 
14.2342 -10.1344 23.4269 14.0848 -1.80604 29.368 14.0283 -2.28042 29.1074 
14.1518 -2.17228 29.5376 13.5664 -3.24394 27.6895 13.631 -2.69438 28.0352 
13.357 -2.76544 27.443 13.9531 -8.4609 24.6088 13.4385 -9.23837 22.1756 
13.4515 -9.6883 21.6708 13.7499 -10.0089 22.1369 14.2898 -11.4136 21.9961 
13.9586 -11.8913 20.5791 14.2404 -12.4903 20.6649 14.0218 -11.0702 21.6379 
14.0508 -10.7887 22.0335 14.0417 -10.3488 22.5308 14.4091 -12.593 21.0317 
14.2498 -11.9817 21.2385 11.8659 -6.37276 21.0446 12.0705 -6.62337 21.4956 
12.5151 -6.68062 22.7034 12.2895 -6.71902 22.054 12.6797 -7.22938 22.5218 
11.561 -5.51014 21.1221 11.6675 -5.91008 20.9774 11.6946 -6.08324 20.6609 
11.9254 -6.88312 20.3328 11.7358 -6.37426 20.2873 11.7687 -6.69975 19.8695 
13.8866 -7.66535 25.372 13.9204 -7.4128 25.8261 13.677 -7.16389 25.2039 
12.2142 -7.72505 20.1125 12.0055 -7.40029 19.6436 12.2239 -7.88504 19.7844 
13.7471 -8.95204 23.3634 12.7711 -7.97184 21.7699 12.7661 -8.27129 21.3275 
13.121 -8.57926 22.047 14.2306 -8.27024 26.0912 14.104 -8.21569 25.5463 
13.6949 -10.6599 21.2161 13.957 -11.2641 21.2579 11.5756 -4.70781 22.1295 
11.5679 -15.2185 11.7897 11.4657 -14.6711 11.9113 11.4641 -14.9306 11.5765 
11.7236 -3.04123 24.1221 11.9557 -3.36324 24.446 11.8511 -2.93618 24.5161 
11.3703 -14.1219 11.6695 11.3406 -14.0865 11.2999 11.392 -14.5522 11.4139 
11.4469 -15.0943 11.2174 11.7263 -15.4257 12.0799 11.744 -15.7986 11.7734 
11.7718 -2.53744 24.5596 11.7542 -2.16018 24.6548 11.6413 -2.37416 24.2542 
11.426 -14.2118 12.0123 11.3948 -13.8014 11.9791 11.8587 -15.4389 12.4426 
[...]
POINT_DATA 853
VECTORS velocity double
0.969087 -3.22639 -0.488806 1.13247 -3.33593 -0.515451 1.24038 -3.31248 -0.382386 
1.30549 -3.15795 -0.120532 1.32222 -2.86607 0.242493 1.26815 -2.48275 0.576913 
1.12983 -2.04215 0.739267 0.880426 -1.52406 0.740864 0.549369 -1.00635 0.723834 
0.217739 -0.589884 0.825884 -0.091173 -0.285315 1.05758 -0.32702 -0.122198 1.31687 
-0.459666 -0.091191 1.47024 -0.464214 -0.174748 1.40275 -0.33588 -0.326723 1.10526 
-0.07933 -0.440998 0.670009 0.294703 -0.39807 0.320836 0.80043 -0.19901 0.182275 
1.42366 0.0533108 0.243403 2.07523 0.169203 0.374629 2.56852 0.0738494 0.451905 
2.72306 -0.0798043 0.465494 2.44448 -0.0363391 0.494085 1.66105 0.383154 0.618921 
0.287286 1.18934 0.79353 -1.21781 1.94745 0.802656 -2.41583 2.27253 0.592876 
-3.24198 2.23585 0.336892 -3.6458 2.09026 0.143233 -3.72782 2.14831 -0.0583871 
-3.6428 2.55166 -0.35835 -3.36304 3.05952 -0.68031 -2.94564 3.42235 -0.924675 
-2.47368 3.64638 -1.13772 -1.97656 3.77187 -1.4035 -1.46355 3.81146 -1.78111 
-0.901672 3.68096 -2.20622 -0.282215 3.29097 -2.61371 0.299777 2.56473 -2.85539 
0.728932 1.57674 -2.894 0.920669 0.523045 -2.78276 0.937126 -0.448853 -2.57154 
0.88401 -1.2324 -2.3063 0.82629 -1.78709 -2.02402 0.791537 -2.20651 -1.74147 
0.729694 -2.4324 -1.45712 0.629366 -2.41122 -1.18401 0.475631 -2.05444 -0.891281 
0.227888 -1.15045 -0.512471 -0.116147 0.515633 0.00538574 -0.451235 2.58701 0.621603 
-0.687882 4.15147 1.27707 -0.818612 4.64551 1.84746 -0.841451 3.92382 2.15075 
-0.733109 1.96905 2.05162 -0.47615 -0.481947 1.53023 -0.139027 -1.95646 0.891792 
0.203137 -2.55574 0.351797 0.509636 -2.84595 -0.0537393 0.759667 -3.04346 -0.325074 
0.984381 -3.39917 -0.597884 1.09517 -3.4608 -0.649162 1.25866 -3.60238 -0.753888 
1.30037 -3.53644 -0.656318 1.38597 -3.43247 -0.555198 1.39568 -3.22218 -0.329081 
1.41427 -2.93859 -0.204528 1.35844 -2.65684 0.067014 1.26037 -2.20387 0.209047 
1.11253 -1.82611 0.36538 0.925134 -1.36608 0.340038 0.707106 -0.989447 0.411891 
0.389488 -0.509385 0.534558 0.151242 -0.246539 0.706507 -0.0986999 0.0809171 0.889006 
-0.267353 0.166865 1.09691 -0.470229 0.34205 1.31811 -0.58124 0.405874 1.43551 
-0.62763 0.421334 1.42609 -0.578359 0.282561 1.34144 -0.449242 0.158049 1.08759 
-0.29321 0.0882884 0.864984 -0.040436 0.0758509 0.636578 0.243462 0.0588374 0.504315 
0.682957 0.155803 0.479363 0.973518 0.266599 0.570129 1.45805 0.322839 0.641509 
1.78807 0.350794 0.734988 2.14374 0.270283 0.731096 2.03147 0.318509 0.785849 
2.01858 0.290642 0.73896 1.6043 0.490456 0.792267 0.819187 0.914937 0.907707 
-0.0440907 1.36788 0.99611 -0.844849 1.74859 0.991462 -1.6082 2.01443 0.936991 
-2.24321 2.07049 0.883051 -2.64557 2.03262 0.787454 -2.90239 1.9226 0.700405 
-3.05797 1.88719 0.553159 -3.03288 1.97238 0.363004 -2.87414 2.10997 0.231559 
-2.64421 2.35665 0.0402023 -2.47774 2.56064 -0.110801 -2.17305 2.84451 -0.339599 
-1.90105 2.88048 -0.377177 -1.50283 3.00921 -0.661391 -1.24989 3.02613 -0.875406 
-0.805554 2.93667 -1.26366 -0.477081 2.74959 -1.48827 0.109618 2.28474 -1.93148 
0.445976 1.91843 -2.19352 0.892728 1.14532 -2.43316 1.11435 0.563717 -2.52352 
1.27372 -0.344566 -2.56701 1.28258 -0.903403 -2.52353 1.22122 -1.5886 -2.37714 
1.15187 -1.98428 -2.22708 1.04895 -2.2048 -2.05219 0.990785 -2.48713 -1.84952 
0.892892 -2.64785 -1.59617 0.840959 -2.79602 -1.37873 0.719163 -2.72162 -1.15284 
0.578672 -2.56671 -0.883295 0.359944 -2 -0.565962 0.133669 -1.25623 -0.218782 
-0.128943 0.00851605 0.156775 -0.331415 1.13351 0.497647 -0.549444 2.61055 0.932063 
-0.650401 3.03994 1.25077 -0.737313 3.50494 1.55513 -0.764239 3.22179 1.77203 
-0.692001 1.89167 1.77283 -0.575791 0.504502 1.64593 -0.336781 -1.11384 1.20179 
-0.162067 -1.87102 0.916803 0.155674 -2.57477 0.412589 0.361077 -2.81128 0.129005 
0.630384 -3.09911 -0.229759 0.761643 -3.17965 -0.368001 -0.589424 1.63252 1.32736 
-0.498399 1.55966 0.975342 -0.411971 -0.286824 1.20735 -0.158646 -0.523484 0.413399 
-0.351591 0.0425636 0.879188 0.020454 -2.26969 0.565248 0.317741 -2.3418 -0.256297 
-0.00373353 -1.80344 0.417181 0.501838 -3.07192 -0.115012 0.741791 -3.06422 -0.887897 
1.24664 -3.7516 -0.982549 0.920471 -3.4755 -0.645913 1.28048 -3.09979 -1.84496 
1.04731 -3.22005 -1.41644 0.131086 1.23277 1.15056 1.3681 -0.488571 -1.90785 
1.60075 -1.70712 -2.21786 0.467734 -2.96615 -0.231749 1.46421 -2.80665 -2.10199 
1.09233 0.765332 1.03358 -0.949461 1.6881 1.17894 1.48998 -2.53238 -0.698749 
1.54407 -3.32813 -0.920431 1.47738 -3.75248 -1.11636 -0.280471 0.687475 0.834209 
-0.784563 1.04992 1.34251 -0.351047 2.94226 -1.98917 0.662686 0.844404 -1.29574 
-1.91365 3.24069 -0.797173 1.07445 0.522799 -2.69016 1.0113 0.710791 1.13545 
-1.60233 1.67142 1.27502 1.20597 -1.58821 -0.347482 0.190443 0.172671 0.369687 
-0.925297 2.22856 0.107141 -1.43947 2.2201 0.417395 0.85969 -0.88855 -0.0746048 
1.41815 -0.556372 -2.34917 -0.228955 1.8762 -0.605458 -0.616173 0.99011 1.19668 
-0.37325 0.7 0.934268 0.888239 -3.43694 -0.816583 0.0501491 1.90016 -1.24259 
-1.33421 2.46359 0.0616405 -0.0229852 1.18452 1.31358 0.57219 0.685056 1.13376 
-1.81029 1.49607 1.23675 -0.689836 0.901884 1.16028 -1.76211 1.86536 0.669307 
0.113495 0.60731 0.942588 -1.861 1.54168 0.977579 1.62126 -1.83079 -1.73541 
1.20896 -3.68382 -1.24344 -0.447677 1.12855 1.43894 0.990952 0.513962 -1.79188 
1.19888 -0.697986 -1.12596 -1.70279 2.16236 0.419622 -0.625118 2.18754 -0.321329 
0.332858 0.712137 -0.371573 -0.906159 1.78596 0.858096 1.67958 -2.79261 -1.62032 
-1.08024 1.64806 1.02432 -0.522904 1.50096 0.563002 1.64069 -3.41397 -1.5217 
1.5951 -3.54109 -1.69256 -0.444595 0.591555 0.957452 -0.832782 1.22556 1.10803 
-0.700365 0.782149 1.28349 -0.88869 1.38567 1.21037 0.650338 0.514072 0.898877 
-0.205536 0.853785 1.23949 -0.823994 1.10854 1.21631 0.0562072 0.460964 0.774229 
-0.458336 0.886569 1.06029 -1.10775 1.36238 1.09254 -2.26036 1.62154 0.929887 
-1.28651 1.2739 1.29778 -2.04596 1.79756 0.677018 -0.138257 1.12311 0.204358 
0.585822 -0.247736 -0.0579016 0.880426 -0.347222 -0.635341 -1.23821 1.6267 0.967005 
1.4527 -1.64773 -1.13592 -0.775198 1.22532 1.26381 -0.725782 1.54466 0.897573 
1.62605 -2.64762 -2.0898 1.45751 -3.73206 -1.55085 -0.679973 1.0865 1.40634 
-1.01392 1.78551 0.953066 -0.0277882 -0.220292 0.597921 -0.144796 0.0386646 0.710366 
0.10304 -0.155354 0.501989 -0.432005 2.87962 -1.7586 -0.236037 2.36855 -1.34756 
-0.163218 2.48256 -1.65967 0.0874889 0.0513534 0.56242 0.304547 -0.178171 0.384165 
0.5204 -0.115963 0.326682 0.529795 -0.312738 0.224457 -0.173803 -0.204002 0.759791 
0.0938179 -0.444235 0.471307 -0.127955 2.65674 -1.98483 -0.059806 2.74566 -2.25013 
-0.353726 3.14194 -2.27266 -0.522134 0.209432 1.22606 -0.382416 -0.106464 1.08318 
-0.467422 -0.0310599 1.2546 -0.416985 -0.246612 1.28274 -0.515438 0.0319746 1.36564 
-0.160268 0.346669 0.758995 -0.043564 0.335758 0.713295 -0.280554 -0.1682 0.910394 
-0.383566 0.131529 0.982224 -0.554251 0.502176 1.12747 -0.494521 0.469115 1.04392 
-0.222876 -0.397207 0.891391 -2.01257 2.8647 -0.355281 -1.77813 2.50739 0.047999 
-1.67262 2.55198 0.00108757 -0.251213 0.32098 0.807345 -0.413528 0.646647 0.93545 
2.01834 0.240346 0.542065 2.22517 0.21407 0.578079 2.35397 0.143089 0.422805 
-1.92803 3.07562 -0.5998 -2.14987 3.4284 -0.958367 -2.16725 3.20584 -0.715412 
0.559748 0.980728 1.19096 0.0731951 1.21529 1.22879 0.544795 1.03002 1.11944 
2.39427 0.159083 0.593953 1.97228 0.326556 0.753618 1.62126 0.346772 0.69559 
1.79787 0.234826 0.493659 2.47215 0.1087 0.599495 2.69591 -0.0111059 0.464337 
1.04587 0.0649563 0.337076 1.10042 -0.0699896 0.192156 0.786877 -0.0257004 0.311497 
0.466451 0.0900702 0.46395 -0.149094 0.552906 0.840564 0.151889 0.286366 0.646 
1.52761 0.198577 0.435763 1.21598 0.161261 0.417776 1.22975 0.282114 0.578701 
0.85209 0.214324 0.518354 -2.09159 1.55968 1.07102 -2.62804 1.74325 0.770407 
-2.51353 1.71442 0.894707 0.834557 0.391647 0.735342 1.03778 0.420461 0.783343 
1.75808 0.139242 0.311899 0.366139 1.67121 -1.64029 0.569365 1.40156 -1.77126 
0.259014 2.13146 -2.0444 0.274293 0.663839 1.07069 0.394898 0.550888 0.92144 
-0.0533457 0.747903 1.11017 -0.751524 0.918806 1.33231 -0.643934 0.55087 1.31391 
-0.683205 0.642859 1.37604 0.49495 0.160082 -0.213029 0.713475 -0.224972 -0.357039 
0.632827 0.211425 -0.560138 -0.407656 -0.0911834 1.41483 -0.402136 0.0951544 1.32985 
-0.472878 0.123434 1.4144 0.0283956 -0.0767241 0.785952 0.179338 -0.104259 0.575573 
0.0162265 0.151017 0.67381 -0.301041 0.0351023 1.20919 -0.366164 0.276048 1.19413 
-0.540724 0.115482 1.46831 -0.478749 -0.121405 1.46783 -0.516399 0.130045 1.46016 
-0.194541 -0.0438374 1.09022 -0.221948 -0.184876 1.19374 -0.418071 2.02554 -0.450727 
-0.507383 2.41291 -0.911816 -0.719278 2.56127 -0.795543 0.179389 -0.41099 0.767611 
0.0377934 -0.255489 0.869562 0.0606732 -0.424683 0.927184 1.35022 -3.70895 -0.89916 
1.26938 -3.69517 -0.876142 1.38235 -3.81108 -1.10103 -0.0949 -0.0885852 0.968982 
0.312981 -0.571858 0.693464 0.26226 -0.354927 0.615738 0.381492 -0.784028 0.757077 
0.466269 -0.773317 0.632389 -0.156355 0.332405 0.842611 -0.282 0.382997 1.01224 
-0.190075 0.135271 0.997757 1.37343 -3.64484 -0.816553 1.43791 -3.59513 -0.825306 
1.35018 -3.51859 -0.63742 1.62689 -3.11475 -1.26433 1.61021 -3.41827 -1.28478 
1.66802 -3.15471 -1.57686 0.321841 -0.208989 0.417761 -0.396471 1.10991 0.725598 
-0.566338 1.24013 0.923696 -0.482531 0.896461 1.04063 -0.535547 0.374448 1.39415 
-0.703078 0.719553 1.40066 -0.603606 0.333108 1.39679 -0.614083 0.711379 1.34877 
-0.538018 0.643963 1.27448 -0.414373 0.559291 1.12799 -0.554658 0.141942 1.429 
-0.615137 0.414503 1.44976 -0.616099 2.83206 -1.3869 -0.350319 2.33498 -1.07667 
0.223864 1.29234 -0.793619 -0.0692192 1.83338 -0.88382 0.0462156 1.32486 -0.431413 
-0.581638 3.28939 -2.11091 -0.67307 3.17381 -1.80765 -0.886938 3.32165 -1.72329 
-1.04356 3.02038 -1.08335 -1.12781 3.39639 -1.54065 -1.37869 3.41767 -1.32591 
0.644218 -0.642304 0.179382 0.775137 -0.914706 0.168556 0.746824 -0.582475 -0.108241 
-1.07907 2.62685 -0.410704 -1.39585 3.01706 -0.741827 -1.22746 2.66201 -0.325634 
-0.0544879 0.478819 0.584336 -0.351616 1.65247 -0.00601434 -0.541909 1.81449 0.148533 
-0.343437 1.34213 0.386085 0.633983 -1.01771 0.594216 0.551804 -0.731485 0.450644 
-0.697444 1.08824 1.2541 -0.672681 0.790419 1.38258 0.109842 2.61653 -2.42178 
2.25985 0.128104 0.617611 1.79794 0.396738 0.778438 2.01962 0.238547 0.650585 
1.08671 0.593729 -2.63375 1.26943 0.0443619 -2.4302 1.23556 0.0651756 -2.55123 
1.2566 0.678659 0.853015 1.20392 0.684328 0.770394 1.67057 0.42332 0.70306 
2.12504 0.120122 0.542894 2.40893 0.0839159 0.603257 2.63983 -0.0971518 0.470418 
1.17102 0.112741 -2.63693 1.11605 0.0639376 -2.67414 1.00036 0.593844 -2.75706 
1.35214 0.639092 0.908195 0.922774 0.8609 0.986724 2.39139 0.130703 0.63724 
2.06314 0.288844 0.754149 0.650115 0.997603 0.837842 1.03988 0.751042 0.71317 
0.0182307 1.31708 1.07774 0.363864 1.1587 0.952094 0.475586 1.08972 1.03813 
1.62922 0.502099 0.876455 2.10156 0.289498 0.763865 0.10382 1.29886 0.9063 
-0.432467 1.55992 1.00296 -0.402012 1.56133 0.914956 -0.493641 1.61262 0.828212 
-0.984703 1.83102 0.908094 -1.98234 2.14802 0.795843 -1.86168 2.16668 0.716815 
-1.50063 2.0248 0.8638 -1.22705 1.89203 0.983849 -0.315966 1.42741 1.19261 
-0.464208 1.54227 1.09894 0.833989 -3.31777 -0.480463 0.97661 -3.46949 -0.648044 
0.871406 -3.29349 -0.490222 1.05277 0.751296 1.10499 1.60111 0.520306 0.924933 
1.59049 0.514382 0.95176 -0.910485 1.74058 1.07105 -1.38206 1.89499 1.05286 
-2.87861 2.28659 0.458184 -2.41487 2.19618 0.710647 -2.76371 2.18815 0.618595 
-2.49705 2.05492 0.828921 -2.92247 2.12291 0.604879 -2.75916 1.98559 0.761057 
-3.18676 2.08851 0.485616 0.688919 -3.24471 -0.539887 0.624788 -3.07988 -0.562101 
0.825594 -3.2891 -0.857987 -3.4961 2.15637 0.234116 -3.34869 2.03754 0.400723 
-1.91144 2.05862 0.924175 -1.92936 1.89477 1.08804 -1.64756 1.90688 1.08908 
-1.25678 1.69261 1.25819 1.10527 -3.64737 -0.86169 1.09688 -3.57593 -0.760014 
-0.532187 1.44547 1.2905 1.29937 -2.33174 -2.19813 1.38597 -2.98017 -1.99738 
1.24148 -2.53756 -2.08122 -2.36264 3.22874 -0.728688 -1.95181 2.49095 0.0421838 
-1.56029 2.19526 0.423193 -2.72164 3.56191 -1.04223 -2.55914 3.13671 -0.645275 
-2.7493 2.96748 -0.511221 -2.3482 2.73246 -0.249034 -1.97779 3.4871 -1.06862 
-1.71515 3.15042 -0.750119 -1.7119 3.34288 -0.999431 -2.58992 2.46151 -0.0420041 
-2.21505 2.11052 0.349548 -2.11908 2.18714 0.299609 -1.58764 3.40383 -1.15049 
-1.71885 3.80377 -1.58138 -1.19561 3.77724 -1.99153 -0.51497 0.702619 1.29625 
-0.577583 0.875935 1.52012 -0.635245 1.63449 1.54539 -0.417047 1.31611 0.738923 
-0.531159 2.16695 0.951846 -0.456665 1.94239 0.734113 0.0205558 -1.07358 0.0491261 
-0.139001 -0.209743 0.249865 -0.0252839 -0.541435 0.0076028 -0.600809 3.531 -2.42045 
-2.22909 3.71567 -1.25375 -0.7587 1.39708 1.10612 -0.813949 1.66861 0.890028 
-0.847561 1.55773 1.07147 -0.212824 0.454947 0.293484 -0.278063 0.449796 0.499873 
-3.45884 2.10324 0.120511 -3.47195 2.02615 0.233637 -3.08773 1.91917 0.446073 
-2.40505 1.72656 0.984594 -2.2994 1.79353 1.03574 -1.71972 1.56002 1.28821 
0.400808 -2.73006 -0.242491 0.231113 -2.5164 0.0960269 0.161839 -2.14285 0.0887219 
-3.43707 2.01287 0.322418 -3.71415 2.07758 0.0510095 -3.70401 2.31299 -0.194537 
-3.40229 2.2238 0.00788297 -2.99611 1.89124 0.631932 -2.9822 2.62814 -0.258788 
-2.92443 2.82725 -0.415734 -3.15692 3.24923 -0.799838 -2.79887 2.27208 0.0884721 
-3.18768 2.51887 -0.205831 -3.53353 2.81935 -0.531111 -3.31027 2.35114 -0.0872487 
-0.469835 0.742884 1.1003 -0.371069 -0.153901 1.01267 -2.9447 2.02298 0.312793 
-0.209627 -0.851872 0.693176 -0.267217 -0.247478 0.679361 -0.0686873 -1.28167 0.403569 
-1.43348 1.43884 1.06489 -1.60133 1.59052 0.926734 -1.94381 1.65692 0.834964 
0.663512 -2.6894 -1.02769 0.734707 -2.87303 -1.05201 0.63597 -2.80598 -0.847529 
-0.426692 0.753128 0.932155 -0.355493 0.571116 0.72739 -2.09158 1.58172 0.952373 
-2.48695 1.76781 0.677009 -2.62009 1.76926 0.68554 -1.42306 2.759 -0.344014 
-1.12974 2.36548 0.092676 0.833136 -2.9786 -1.19472 0.779905 -2.77498 -1.25997 
0.0258545 2.9656 -2.76621 0.356529 2.3007 -2.55421 -1.64077 2.69633 -0.182887 
-1.65872 2.8982 -0.441973 0.903762 -1.44565 0.532397 0.8237 -1.19969 0.397559 
0.782503 -1.25723 0.581409 0.716412 -1.25267 0.722743 1.22283 -1.18488 -0.778522 
1.05233 -0.548691 -0.875533 1.0692 -0.967606 -0.553843 1.0158 -1.69719 0.569624 
1.02749 -1.60206 0.34736 1.11784 -1.93189 0.551197 1.02221 -1.79651 0.754365 
1.18342 0.0339686 -1.82906 1.1462 0.372716 -2.18069 0.961217 0.808118 -2.11153 
1.2625 -2.3533 0.426554 1.19546 -2.13613 0.505686 1.21103 -2.27023 0.681202 
1.45539 -2.83905 -0.411601 1.40173 -2.62047 -0.204839 1.3894 -2.79438 -0.067114 
1.3039 -2.67949 0.429456 1.34358 -2.76188 0.185808 1.31327 -2.57574 0.315178 
1.32725 -2.46015 0.113474 1.18701 -1.99223 0.283323 1.45515 -3.29199 -0.560583 
1.47645 -3.1016 -0.537844 1.41142 -3.10025 -0.271228 1.36987 -2.06773 -0.497342 
1.26107 -2.00643 -0.0738776 1.3563 -2.32645 -0.189875 0.940223 1.05458 -2.69827 
0.801338 1.44376 -2.70163 1.0356 0.796021 -2.48557 0.751827 1.18325 -1.97189 
0.674894 1.57827 -2.34293 -0.542691 1.59629 1.14053 0.607981 1.87281 -2.65051 
0.537511 2.09721 -2.89506 0.932574 0.971975 -2.78081 1.44097 -0.963433 -2.42723 
1.35856 -0.470776 -2.48078 1.53378 -1.16694 -2.27649 1.36903 -2.91724 0.0113227 
1.47828 -1.37569 -2.39062 1.28102 -0.578155 -2.55671 1.64336 -1.82594 -2.01143 
1.56118 -1.22853 -2.08081 1.46569 -3.45399 -0.733329 1.52967 -3.57735 -1.04572 
0.850615 1.06075 -2.8568 1.36045 -3.06312 -0.0773916 1.54639 -2.97716 -0.850329 
1.15244 -1.77295 0.0940907 1.099 -0.186471 -2.65159 1.35126 -3.19578 -0.213599 
1.32073 -3.03001 0.0499654 1.04361 -1.45942 0.0691503 1.31249 -3.3798 -0.442726 
1.33793 -3.29573 -0.333163 1.27885 -3.25304 -0.266955 1.69491 0.452286 0.905702 
1.28513 -3.57825 -0.71479 1.26946 -3.43113 -0.52604 1.22471 -3.45097 -0.578928 
1.19095 -3.33691 -0.463854 1.39896 -3.33056 -0.452762 1.11078 -3.40634 -0.596859 
1.17914 -3.54363 -0.70966 1.19596 -3.48095 -0.632618 1.03344 -3.34658 -0.565728 
0.965728 -3.29811 -0.529817 1.0536 -3.44911 -0.642474 1.05702 -3.29623 -0.522749 
1.26836 -1.29233 -2.45703 1.48796 -1.78448 -2.34573 1.44822 -2.08325 -2.3019 
0.870137 -3.14014 -0.422199 0.876244 -3.22303 -0.460153 1.66573 -3.16677 -1.78044 
1.68471 -2.77236 -1.88233 1.62712 -3.20421 -1.88482 1.56732 -3.27019 -1.907 
1.54655 -2.73606 -2.12312 1.15693 -3.59587 -0.772313 0.759297 -3.11569 -0.345298 
0.638589 -2.9426 -0.200392 0.650584 -3.025 -0.227722 0.744383 -3.26046 -0.391751 
0.702298 -3.14768 -0.308989 0.570322 -2.97994 -0.139105 0.495234 -2.95826 -0.0533025 
0.426208 -2.83061 0.0462848 0.735687 -3.30975 -0.428633 0.587937 -3.11364 -0.195667 
0.164645 -2.55085 0.407342 0.274718 -2.72985 0.244829 0.287969 -2.69338 0.232767 
0.363227 -2.72242 0.130421 -0.154859 -1.91183 0.914304 -0.0116678 -2.26795 0.668846 
0.0162197 -2.31539 0.632242 0.0341633 -2.31989 0.606147 -0.310468 -1.37998 1.20351 
-0.305491 -1.36661 1.18113 0.278945 -2.78831 0.185759 0.293726 -2.79723 0.199777 
0.114572 -2.51928 0.457835 1.66577 -2.34794 -1.66273 1.59052 -2.27282 -1.28134 
1.6174 -2.72143 -1.23774 0.410751 -2.91837 0.0478626 0.911026 -3.2047 -1.15165 
0.998661 -3.42045 -1.11804 0.493515 -3.06573 -0.175189 0.256665 -2.69928 0.152776 
1.62943 -2.18036 -2.16112 0.455056 0.956165 1.26825 -0.200334 -1.64006 0.94321 
-0.0797875 -2.07765 0.763066 -0.251172 -1.53332 1.06215 0.938801 0.0175097 -2.68569 
1.09157 -0.580887 -2.57954 1.07121 -0.992882 -2.47704 -0.206279 -1.18876 0.801773 
1.03845 -1.3192 -2.37258 0.920161 -0.870591 -2.4457 1.03262 -1.62505 -2.27107 
1.16889 -1.76623 -2.30724 0.0744586 -1.60164 0.0972076 0.200585 -1.7727 -0.203521 
0.971347 -1.77229 -2.16879 1.09905 -2.10777 -2.13957 1.08641 -3.64934 -0.947632 
1.24104 -3.76849 -1.12732 0.909431 -2.13869 -1.9404 0.940809 -1.98125 -2.05086 
1.03446 -2.37477 -1.95921 0.923362 -2.98739 -1.38008 0.913784 -3.49759 -0.734397 
1.05775 -3.57818 -1.04489 0.845936 -1.51996 -2.16472 1.36784 -2.19736 -2.26545 
0.943406 -2.60761 -1.70765 0.847303 -2.43788 -1.67231 0.877984 -2.29279 -1.81356 
0.809872 -2.01829 -1.88249 0.791296 -2.62513 -1.42196 0.814671 -2.53535 -1.54254 
0.872561 -2.73579 -1.49151 0.544213 -2.83105 -0.568861 0.768244 -2.34958 -1.60149 
0.732 -2.60408 -1.30259 0.491424 -2.56396 -0.624166 0.349806 -2.1655 -0.4506 
0.463394 -2.32018 -0.702984 0.611327 -2.49197 -1.04595 0.675244 -2.57383 -1.17155 
0.0158464 -2.0977 0.491434 0.562827 -2.28897 -1.04416 0.528584 -2.3285 -0.900834 
0.420972 -2.03716 -0.729858 0.303913 -1.64964 -0.554577 0.364626 -1.68386 -0.71674 
1.17923 -3.23155 -1.63051 1.05762 -2.90018 -1.68301 1.13029 -2.8021 -1.84265 
0.680822 -2.44837 -1.31813 -0.201194 -1.47687 0.888594 1.5423 -3.65514 -1.63797 
1.49373 -3.3838 -1.84773 -0.544036 0.106581 1.63248 -0.465106 -0.359212 1.43761 
-0.405713 -0.831833 1.35818 -0.362629 -0.845246 1.20669 -0.636197 1.1626 1.72375 
-0.517769 0.194683 1.47865 -0.654346 1.15355 1.84052 -0.728971 2.0809 1.95235 
-0.622364 0.71299 1.83146 -0.691709 2.44943 1.57922 -0.737004 2.63657 1.78388 
-0.781301 2.93179 1.9927 -0.807611 3.61013 1.95719 -0.80563 3.99128 1.84956 
-0.780506 4.09308 1.68634 -0.750939 3.34225 1.66086 -0.682686 2.70062 1.46337 
-0.844086 4.44092 2.03986 -0.766389 4.54202 1.58694 -0.732876 3.95468 1.47408 
-0.805823 3.08502 2.15976 1.24892 0.112534 -2.28449 -0.63008 2.43243 1.29124 
-0.59065 2.37094 1.14039 0.0301712 -0.534263 -0.151223 -0.116343 0.160908 0.081926 
1.15625 -2.57807 -1.98507 0.0654995 -0.423153 -0.271973 0.179931 -1.18633 -0.371199 
-0.243893 0.95411 0.272312 0.261988 -1.72176 -0.40542 -0.675579 3.58848 1.27168 
-0.614572 3.33558 1.06614 -0.612329 2.94179 1.11225 -0.693602 3.27132 1.39519 
-0.383598 1.80422 0.526893 -0.512784 2.66104 0.801646 -0.582919 3.48352 0.947396 
0.968378 -2.88082 -1.55096 -0.294282 1.56629 0.306483 1.42202 0.513544 0.954848 
0.716068 -3.31109 -0.476684 -2.2809 1.90766 0.996419 1.13142 0.472056 0.867567 