# vtk DataFile Version 3.0
vtk output
ASCII
DATASET POLYDATA
POINTS 853 float
14.8389 -1.64833 30.31 14.8314 -2.69283 30.1326 14.8396 -3.69406 30.0062 
14.8532 -4.67227 29.8411 14.8459 -5.68586 29.5993 14.8354 -6.68104 29.1825 
14.7793 -7.58983 28.4723 14.671 -8.4429 27.4459 14.5689 -9.21669 26.3204 
14.4849 -9.92441 25.3336 14.4221 -10.6764 24.4445 14.3921 -11.4721 23.6291 
14.3924 -12.3133 22.769 14.3858 -13.1876 21.7476 14.3751 -14.0198 20.6112 
14.4351 -14.762 19.3185 14.4458 -15.2827 18.0379 14.4068 -15.5982 16.8321 
14.344 -15.7667 15.6403 14.1443 -15.9257 14.4685 13.7732 -16.0943 13.3652 
13.28 -16.0641 12.356 12.7381 -15.5831 11.623 12.1321 -14.487 11.2941 
11.3541 -12.7722 11.3034 10.6246 -10.9867 11.5074 10.2156 -9.62693 11.8722 
10.2116 -8.69689 12.4974 10.4824 -8.04185 13.3709 10.6185 -7.42624 14.3235 
10.461 -6.75703 15.2091 10.3475 -6.22628 16.0308 10.4632 -5.90141 16.8216 
10.6862 -5.62219 17.6061 10.8845 -5.24915 18.3748 11.013 -4.6918 19.0725 
11.1423 -4.0354 19.7434 11.3254 -3.31416 20.4772 11.5779 -2.69205 21.3301 
11.8268 -2.17598 22.2866 12.0659 -1.60745 23.2367 12.3542 -1.01449 24.0659 
12.6719 -0.37414 24.7428 12.9571 0.286841 25.3041 13.206 0.946742 25.8606 
13.4168 1.75302 26.3828 13.5752 2.6859 26.8732 13.715 3.70522 27.402 
13.8945 4.93203 27.9855 14.1573 6.57472 28.6265 14.4907 8.52244 29.3184 
14.8913 10.0053 30.1133 15.2875 10.3358 30.8807 15.527 9.36127 31.3574 
15.578 7.14111 31.4623 15.4508 4.66703 31.4039 15.2715 2.86728 31.2243 
15.1062 1.5523 30.95 14.9562 0.432593 30.7213 14.861 -0.604467 30.5346 
14.8195 -1.28748 29.8582 14.7974 -1.95915 29.8339 14.7997 -2.82941 29.4395 
14.8115 -3.38171 29.4912 14.7958 -4.21989 29.2083 14.7871 -4.85179 29.1711 
14.719 -5.52695 28.7106 14.7311 -6.08916 28.6458 14.6534 -6.79216 28.0289 
14.6285 -7.39714 27.5864 14.4831 -7.85362 26.7587 14.4235 -8.32625 26.1487 
14.326 -8.89806 25.2973 14.3087 -9.41659 24.7661 14.1761 -9.80152 24.0684 
14.1883 -10.3681 23.6722 14.0994 -10.9409 22.9495 14.0197 -11.4733 22.3087 
13.9621 -12.0107 21.514 13.9503 -12.5986 20.9837 13.9013 -13.2434 20.0005 
13.8023 -13.6619 19.228 13.7248 -14.0305 18.2431 13.6747 -14.3855 17.5442 
13.5791 -14.6579 16.582 13.4329 -14.6908 15.9462 13.4017 -14.9302 15.096 
13.2317 -14.9828 14.327 13.048 -15.177 13.4425 12.7397 -14.9075 12.967 
12.4977 -14.8622 12.3653 12.1313 -14.3294 12.0649 11.6467 -13.3815 11.9792 
11.1792 -12.3813 12.0348 10.7545 -11.4549 12.0493 10.4292 -10.5922 12.2492 
10.2286 -9.89932 12.7937 10.1623 -9.43335 13.227 10.2002 -9.05448 13.9061 
10.3376 -8.67604 14.5423 10.4784 -8.28533 15.31 10.6444 -8.06128 15.926 
10.7923 -7.7488 16.627 10.9462 -7.47878 17.103 11.1491 -7.06536 17.8422 
11.3478 -6.98391 18.3733 11.5294 -6.48795 19.1784 11.5691 -6.16455 19.6146 
11.6907 -5.58898 20.2579 11.7491 -5.28459 20.6968 11.9411 -4.62542 21.3976 
12.0325 -4.18609 21.8043 12.2513 -3.67169 22.5043 12.3505 -3.33024 23.0106 
12.5115 -2.68085 23.791 12.6753 -2.27743 24.2481 12.8633 -1.62697 24.8757 
13.0161 -1.11862 25.2821 13.0755 -0.462585 25.6264 13.2935 0.0361138 26.0078 
13.4485 0.791181 26.4183 13.6449 1.22132 26.8247 13.7187 2.01783 27.14 
13.8931 2.70906 27.5224 14.0094 3.78278 27.9352 14.1839 4.66837 28.3698 
14.328 5.92526 28.8044 14.4869 6.958 29.1817 14.7083 8.36324 29.6637 
14.8907 8.69903 30.0661 15.0863 9.0986 30.4583 15.2388 8.67738 30.7895 
15.2911 7.17715 30.9551 15.3041 5.74537 31.1042 15.1918 4.1376 30.9123 
15.1663 3.18571 30.9151 15.0395 1.964 30.6212 14.9565 1.18064 30.5659 
14.8792 0.272309 30.1747 14.8496 -0.329322 30.17 14.9842 7.08597 30.2763 
14.7635 7.17312 29.7835 15.0036 5.1194 30.5071 14.5263 5.22658 29.23 
14.7597 5.61884 29.8593 14.897 2.88231 30.2615 14.3042 3.20433 28.5675 
14.6527 3.73971 29.5756 14.7773 1.11915 29.8421 14.0843 1.53065 27.8757 
14.6487 -2.00563 28.9009 14.69 -0.463889 29.3697 13.6383 -1.21509 26.4756 
13.8588 0.0982893 27.1825 11.3492 -12.6133 12.7457 13.1131 -4.78658 23.8644 
13.2782 -3.71776 24.8019 14.5335 1.91069 29.0729 13.5571 -2.33889 25.8636 
11.9547 -13.7144 12.8622 10.783 -11.3983 12.8374 14.4119 -5.74082 27.1844 
14.5716 -4.6682 27.9786 14.5986 -3.45508 28.3468 13.6991 -9.24343 23.1459 
13.3038 -11.018 20.8432 11.5761 -4.48914 20.6602 12.8128 -5.70335 22.8072 
11.1957 -6.27404 18.4655 12.1914 -2.56094 23.1292 12.2188 -13.7563 13.9859 
10.6496 -10.6944 13.9132 14.2813 -6.76131 26.3291 13.8843 -8.42203 24.1091 
12.2791 -7.5977 20.4359 11.9267 -8.34944 18.9213 14.1693 -7.48024 25.5728 
12.8299 -3.68407 23.8642 12.4328 -6.56541 21.6146 13.521 -10.0004 22.1651 
12.8247 -12.6593 18 14.4052 0.341918 28.5238 12.284 -5.68891 21.7027 
11.9232 -7.62807 19.422 11.4741 -12.5191 13.6217 12.3694 -13.499 15.1941 
10.7729 -10.2919 15.1021 13.0988 -11.8696 19.5088 11.5566 -9.06942 17.5185 
12.5736 -13.2539 16.6105 11.1574 -9.75178 16.3522 13.6873 -4.88925 25.17 
14.2851 -1.04741 28.025 11.4676 -12.1039 14.8195 12.7629 -4.97003 23.0376 
13.5615 -6.02384 24.4607 11.6201 -8.47951 18.1446 12.2991 -6.94037 20.9658 
13.2105 -7.02821 23.1576 12.7026 -8.98666 20.635 14.0469 -4.55045 26.2389 
12.3753 -9.97547 19.1232 12.9783 -8.36284 21.8498 14.2509 -3.98648 27.0549 
14.1099 -3.21629 26.9718 13.1819 -12.7452 18.7553 12.5151 -11.2036 18.6359 
13.4028 -11.8614 20.3169 12.8163 -10.5697 20.0405 12.7553 -13.8817 15.808 
12.0325 -12.5295 16.0738 11.8171 -11.4297 16.8853 12.944 -13.4893 17.2394 
12.3218 -12.2161 17.3987 11.9613 -10.6422 17.6439 10.7114 -9.49515 15.5158 
11.2749 -10.8239 16.034 11.2082 -9.06296 16.7974 13.16 -7.84222 22.6334 
13.9181 -7.62945 24.6039 13.6864 -6.72595 24.3629 12.0722 -9.94377 18.2822 
13.9206 -5.81803 25.532 13.2663 -10.2142 21.3282 12.9825 -9.03305 21.4125 
13.6365 -3.38561 25.6637 14.1953 -2.34915 27.4566 11.5146 -11.7911 15.6245 
12.5445 -9.38152 20.0312 14.1233 -14.508 18.7131 13.8029 -13.954 18.676 
14.0356 -14.5811 18.198 11.6391 -4.86474 20.6436 11.9961 -5.51197 21.1563 
11.8824 -5.04357 21.1105 13.7182 -14.222 17.9235 14.0787 -14.8783 17.7347 
14.0407 -15.028 17.2244 14.4146 -15.4583 17.4313 14.1377 -14.2553 19.2689 
14.4589 -15.0581 18.6664 11.7398 -4.51453 21.0015 11.6497 -4.04716 20.9783 
11.44 -3.98217 20.5241 13.9362 -12.9501 20.5094 14.1621 -13.6806 20.2827 
14.1629 -13.2997 20.8639 14.3632 -13.6068 21.205 14.1873 -12.9553 21.3297 
13.3325 -13.4683 18.1206 13.26 -13.6131 17.7875 14.16 -14.0036 19.7446 
13.8401 -13.4346 19.6227 13.5318 -12.6315 19.7769 13.4641 -12.8148 19.4379 
14.4031 -14.4106 19.9748 11.2724 -7.02924 18.1516 11.5535 -7.72637 18.379 
11.6356 -7.61305 18.6521 13.4447 -13.3988 18.5192 13.0243 -12.7038 18.3997 
13.6986 -15.5065 14.355 13.5599 -15.5688 13.8848 13.9816 -16.0175 13.9067 
11.2583 -6.60497 18.3996 10.9698 -5.98684 18.0952 11.0446 -6.40533 18.0144 
11.735 -13.1402 13.2907 11.4088 -12.5805 13.1319 11.6116 -13.0855 12.824 
13.3925 -15.6286 13.3928 13.1166 -15.0519 13.8593 13.3207 -14.9471 14.7241 
13.7991 -15.4516 14.7978 13.21 -15.6265 12.9612 13.5323 -16.1218 12.8503 
13.9802 -15.2488 16.166 14.3899 -15.6989 16.2385 14.0111 -15.1599 16.666 
13.6438 -14.5668 17.0516 12.8808 -13.1354 17.5999 13.2691 -13.8939 17.3791 
13.8761 -15.3745 15.2907 13.8321 -15.1815 15.7891 13.479 -14.8728 15.5435 
13.5181 -14.6975 16.2217 10.7275 -9.82717 15.3345 10.4973 -9.11314 15.0845 
10.475 -9.38624 14.8187 13.0778 -14.2906 15.8724 13.0421 -14.3807 15.4619 
14.2594 -15.8386 15.0457 12.3112 -5.12606 21.9843 12.3889 -4.94309 22.2502 
11.9832 -4.44458 21.5761 12.406 -13.2844 15.9412 12.6596 -13.601 16.1697 
12.2683 -12.8399 16.3615 13.3467 -11.4446 20.6062 13.6662 -12.2094 20.631 
13.6608 -11.8544 20.9706 13.6201 -7.34655 23.9382 13.7666 -7.13992 24.3833 
13.4334 -6.81035 23.7127 14.3889 -11.8856 23.2152 14.2717 -11.2616 23.2769 
14.2553 -11.6212 22.9045 14.2432 -9.59132 24.4171 14.164 -8.99079 24.5609 
14.0467 -9.15409 24.0993 14.2901 -10.8791 23.668 14.1317 -10.571 23.341 
14.2168 -12.3022 22.1377 14.3984 -12.7513 22.2802 14.2332 -11.9415 22.5561 
14.3096 -10.5533 24.0077 14.4025 -11.0731 24.0281 12.3861 -6.76434 21.3288 
12.0565 -6.11641 20.9113 11.9814 -6.27162 20.5796 14.4022 -9.66849 25.0333 
14.3663 -9.96924 24.6535 14.4523 -10.2861 24.8871 14.7375 -3.06946 29.0064 
14.7412 -2.52712 29.1762 14.6212 -2.74541 28.5747 14.3055 -10.1878 24.2545 
14.4312 -9.40128 25.394 14.309 -9.15159 25.0012 14.5233 -9.57177 25.8085 
14.4704 -9.09997 25.8191 13.9776 -9.49234 23.7066 14.0006 -9.91821 23.4604 
14.1733 -10.0868 23.8626 14.755 -3.45995 29.0631 14.722 -3.91848 28.7925 
14.8035 -3.76625 29.3286 14.336 -4.70824 27.084 14.4049 -4.28423 27.4403 
14.1646 -4.26381 26.6788 14.1267 -8.60205 24.7462 13.3301 -8.79327 22.5003 
13.2637 -9.16504 22.0918 13.5801 -9.61728 22.6008 14.0682 -11.242 22.621 
13.6619 -11.5429 21.2175 13.983 -12.3318 21.2921 13.773 -10.7372 22.2453 
13.8382 -10.4927 22.604 13.888 -10.1005 23.0305 14.1727 -12.533 21.6701 
13.9888 -11.7852 21.8916 11.7288 -5.42284 20.5175 12.0605 -5.8963 21.1061 
12.7292 -6.35973 22.3868 12.3936 -6.19035 21.7305 12.8147 -6.85695 22.3568 
11.367 -4.25349 20.2585 11.4665 -4.75953 20.2526 11.4022 -4.86672 19.9596 
11.6155 -5.85121 19.9227 11.3467 -5.13496 19.6539 11.2779 -5.46017 19.3189 
14.1956 -8.01457 25.3813 14.2798 -7.88212 25.8285 14.0396 -7.51063 25.0753 
11.9099 -6.84202 20.0015 11.5531 -6.36367 19.3705 11.8574 -6.98188 19.7068 
13.7712 -8.78302 23.5999 12.7379 -7.42016 21.8041 12.6534 -7.63743 21.4368 
13.0622 -8.08983 22.2316 14.5208 -8.76674 26.3123 14.3649 -8.58716 25.6928 
13.4239 -10.1615 21.7877 13.681 -10.8897 21.8844 11.6699 -3.7241 21.1631 
12.6387 -15.2285 12.025 12.287 -14.5705 12.2328 12.4089 -14.8998 11.8268 
12.2432 -2.9048 23.0299 12.5785 -3.54023 23.4034 12.4517 -3.05796 23.431 
11.9066 -13.9009 12.0329 11.8529 -13.8627 11.6177 12.1518 -14.4448 11.6925 
12.4535 -15.1175 11.4088 12.8747 -15.4459 12.3123 13.0137 -15.8926 11.9363 
12.334 -2.58329 23.4488 12.2856 -2.1778 23.5339 12.1031 -2.13678 23.1204 
12.0111 -14.0082 12.4066 11.7597 -13.5012 12.419 12.9968 -15.4331 12.6985 
[...]
POINT_DATA 853
VECTORS velocity double
0.997496 -2.6874 -0.165695 1.1704 -2.90692 -0.106801 1.25373 -2.93738 0.0822181 
1.27308 -2.82352 0.341823 1.2392 -2.60461 0.627964 1.15272 -2.32563 0.808945 
1.00467 -1.97952 0.75884 0.781409 -1.52169 0.560011 0.512867 -1.0312 0.482371 
0.241419 -0.622314 0.621947 -0.0239188 -0.322258 0.886074 -0.237562 -0.168453 1.145 
-0.3666 -0.143236 1.29108 -0.369757 -0.22692 1.20561 -0.216711 -0.39004 0.847621 
0.0963462 -0.507717 0.379542 0.531355 -0.441375 0.134515 1.05344 -0.238209 0.149274 
1.62813 -0.0169482 0.282705 2.19688 0.0807732 0.377384 2.63945 -0.009714 0.360156 
2.79387 -0.207111 0.270712 2.50206 -0.285646 0.23725 1.56836 -0.0100764 0.380936 
-0.0465552 0.766455 0.645726 -1.46796 1.54433 0.557676 -2.40292 1.80848 0.150253 
-2.93846 1.72401 -0.103049 -3.08467 1.51783 -0.145324 -3.03401 1.43116 -0.240323 
-2.9988 1.62341 -0.530066 -2.82077 1.93339 -0.831349 -2.40895 2.13655 -0.998586 
-1.88835 2.23333 -1.09385 -1.3866 2.29684 -1.21619 -0.970162 2.40664 -1.43904 
-0.565887 2.47645 -1.67976 -0.134946 2.39919 -1.8734 0.297832 1.97295 -1.94314 
0.653507 1.25362 -1.95832 0.863556 0.51322 -1.95589 0.950458 -0.146655 -1.90098 
0.950543 -0.650748 -1.78666 0.913027 -1.01148 -1.63968 0.884307 -1.33618 -1.48795 
0.834545 -1.56499 -1.33621 0.770977 -1.71916 -1.19495 0.68358 -1.78575 -1.02029 
0.530052 -1.58892 -0.77333 0.296641 -0.736983 -0.507521 -0.0157061 1.22699 -0.264612 
-0.319947 3.48759 0.29503 -0.429634 4.23132 1.13643 -0.378327 2.9541 1.40275 
-0.280405 0.0788623 0.967932 -0.27312 -1.62105 0.902239 -0.0833097 -1.93057 0.684387 
0.202395 -1.9916 0.354365 0.493141 -2.13276 0.0792261 0.757137 -2.37681 -0.0925333 
1.04345 -2.82692 -0.321155 1.15743 -2.97489 -0.31112 1.32981 -3.21148 -0.375212 
1.34336 -3.16623 -0.239265 1.37902 -3.0961 -0.151421 1.34126 -2.91536 0.0517843 
1.30541 -2.70259 0.0454125 1.22545 -2.47385 0.246833 1.10707 -2.11676 0.186329 
0.973686 -1.79803 0.213468 0.827024 -1.40127 0.0569922 0.663471 -1.05431 0.096411 
0.422955 -0.591939 0.243081 0.224418 -0.313329 0.460055 0.0192169 0.0250562 0.671531 
-0.145004 0.13875 0.901649 -0.33793 0.342813 1.13342 -0.456323 0.433327 1.26427 
-0.514786 0.472874 1.27339 -0.473661 0.320207 1.1788 -0.329331 0.156033 0.89507 
-0.151748 0.0434199 0.662105 0.126055 -0.0228881 0.476682 0.416771 -0.0671296 0.397709 
0.823637 -0.0115026 0.448324 1.05553 0.0591941 0.55775 1.48602 0.100816 0.620885 
1.76575 0.112482 0.676119 2.11379 0.0416305 0.615074 1.97243 0.0287855 0.637118 
1.95526 -0.0281515 0.550528 1.45326 0.0997946 0.610745 0.52808 0.46603 0.782919 
-0.372306 0.906164 0.913227 -1.09766 1.29235 0.86614 -1.68724 1.52469 0.722135 
-2.05769 1.50825 0.646471 -2.25612 1.428 0.571662 -2.27239 1.25722 0.580128 
-2.24302 1.14422 0.519537 -2.09682 1.09248 0.40775 -1.88274 1.10023 0.331961 
-1.64322 1.17909 0.186903 -1.47778 1.2641 0.0630736 -1.19284 1.38932 -0.115489 
-0.924189 1.38618 -0.10573 -0.590101 1.40716 -0.30674 -0.401318 1.38052 -0.459605 
-0.0840298 1.26588 -0.742434 0.137984 1.11376 -0.905415 0.515417 0.784269 -1.26166 
0.717534 0.570255 -1.48764 1.02085 0.0620784 -1.7689 1.18902 -0.309943 -1.93005 
1.34788 -0.840558 -2.09555 1.39168 -1.1624 -2.12894 1.36723 -1.50099 -2.04967 
1.30491 -1.66491 -1.9277 1.17739 -1.6487 -1.74628 1.11503 -1.79531 -1.59822 
1.00271 -1.83447 -1.4075 0.960169 -1.97872 -1.26108 0.855054 -1.968 -1.12218 
0.75881 -2.0152 -0.950082 0.610137 -1.94318 -0.749045 0.452612 -1.76877 -0.513812 
0.273017 -1.18733 -0.326293 0.123864 -0.40551 -0.193379 -0.0884122 1.15785 -0.00405269 
-0.194249 1.70349 0.271089 -0.291174 2.37599 0.600932 -0.289041 1.86611 0.814464 
-0.230548 0.0229126 0.764268 -0.244322 -1.18052 0.821733 -0.161436 -1.89973 0.760674 
-0.0652419 -2.01896 0.661289 0.196655 -2.10377 0.353255 0.371442 -2.1425 0.173909 
0.654544 -2.36449 -0.0945085 0.78574 -2.4818 -0.170593 -0.124717 -0.171987 0.426871 
-0.028897 -0.146236 0.143217 -0.121401 -1.63584 0.624237 0.197225 -1.61855 -0.0302394 
0.0154674 -1.4053 0.293947 0.137728 -2.19049 0.387458 0.541345 -2.19255 -0.421623 
0.218522 -2.15543 0.155863 0.562115 -2.36408 -0.0762484 0.884477 -2.33704 -0.866252 
1.37068 -3.3321 -0.718066 1.00397 -2.80997 -0.462456 1.48119 -2.73607 -1.74515 
1.19035 -2.54074 -1.28624 -0.145481 0.721179 1.12242 1.43755 -1.30576 -1.84524 
1.70994 -2.15834 -2.23577 0.602505 -2.38778 -0.280771 1.68858 -2.77283 -2.10819 
0.852539 0.319853 0.943227 -1.04912 1.13832 1.14121 1.35953 -2.46138 -0.797384 
1.50097 -3.08433 -0.760904 1.55489 -3.45103 -0.866362 -0.0553815 0.540981 0.619477 
-0.600967 1.11381 1.25863 0.102321 1.44128 -1.30273 0.942799 -0.276025 -1.13097 
-1.02844 1.62562 -0.522125 1.08888 -0.00639327 -1.98626 0.82177 0.285725 1.0859 
-1.26897 1.02229 1.30187 1.09735 -1.68862 -0.659991 0.353433 -0.0636494 0.0781161 
-0.214556 1.20357 0.299957 -0.614196 1.29138 0.618635 0.841048 -1.07224 -0.446025 
1.50683 -1.30677 -2.10044 0.337136 0.650934 -0.365339 -0.383557 0.949101 1.03331 
-0.250736 0.567222 0.922157 1.00968 -2.7172 -0.720234 0.551467 0.462528 -0.828405 
-0.474355 1.28668 0.313857 -0.173683 0.624123 1.33821 0.481151 0.297396 1.11329 
-1.1389 0.840011 1.34345 -0.53777 0.927032 1.12207 -0.867331 1.06102 0.871193 
0.143992 0.340831 0.941558 -0.998829 0.85807 1.15258 1.61532 -2.18198 -1.92334 
1.37379 -3.19447 -1.10409 -0.360786 0.581326 1.49876 1.16945 -0.599444 -1.53243 
1.23002 -1.23578 -1.3534 -0.789087 1.18989 0.636961 0.0526623 0.971064 -0.0690882 
0.628508 -0.0038368 -0.507197 -0.432544 1.38419 0.867606 1.6864 -2.83044 -1.77868 
-0.627908 1.3482 1.10715 -0.0939644 1.01597 0.490979 1.70262 -3.27237 -1.53964 
1.75068 -3.40883 -1.71183 -0.31765 0.543054 0.885307 -0.567914 1.09035 1.16616 
-0.566022 0.859433 1.19697 -0.619033 1.34109 1.20399 0.619702 0.214025 0.878505 
-0.129471 0.481231 1.27078 -0.491824 0.752554 1.31303 0.138268 0.268685 0.743076 
-0.306492 0.662724 1.10768 -0.628442 0.99217 1.2191 -1.36447 0.886579 1.05932 
-0.730406 0.742118 1.42315 -1.07331 0.957854 0.876076 0.231471 0.559369 0.0747429 
0.685818 -0.559138 -0.405382 0.970244 -0.836071 -0.930625 -0.667807 1.18869 1.10056 
1.38299 -1.9001 -1.41738 -0.525387 1.20529 1.15804 -0.332547 1.24294 0.824749 
1.78738 -2.80251 -2.19759 1.64966 -3.48499 -1.48028 -0.441734 0.60196 1.47911 
-0.545365 1.43776 0.995363 0.159979 -0.293964 0.360669 0.0162528 -0.0378169 0.517511 
0.30402 -0.240281 0.312162 0.108083 1.28494 -1.11782 0.345327 0.797941 -0.823334 
0.356536 0.898631 -1.04494 0.261213 -0.0602399 0.422794 0.523906 -0.260936 0.239526 
0.741397 -0.206149 0.241549 0.781693 -0.34966 0.118123 -0.0107336 -0.267777 0.501091 
0.302888 -0.500032 0.217309 0.303667 1.15007 -1.28434 0.267288 1.39862 -1.49096 
-0.0229903 1.85388 -1.55898 -0.413073 0.230218 1.04864 -0.260651 -0.140263 0.847418 
-0.361775 -0.0476861 1.04772 -0.314318 -0.302879 1.06038 -0.416454 0.0242197 1.17805 
-0.0293048 0.234236 0.660984 0.0800077 0.197329 0.632916 -0.137969 -0.219568 0.654204 
-0.254144 0.110488 0.783373 -0.43454 0.533585 1.00502 -0.372246 0.47481 0.920983 
-0.0786574 -0.465977 0.603679 -1.03005 1.38622 -0.102798 -0.801514 1.25756 0.299503 
-0.714692 1.27897 0.262309 -0.11596 0.241415 0.682206 -0.28687 0.560462 0.892327 
2.07698 0.0851695 0.507656 2.26328 0.0599989 0.508447 2.44373 0.0579425 0.382039 
-0.990365 1.50152 -0.326768 -1.36702 1.86051 -0.764679 -1.28911 1.64369 -0.503606 
0.321169 0.476446 1.16316 -0.151805 0.676714 1.22747 0.267534 0.535737 1.07144 
2.42425 0.00383193 0.482897 1.93558 0.0881107 0.665978 1.62095 0.114055 0.658197 
1.88384 0.0815395 0.485982 2.50222 -0.0614339 0.449363 2.76149 -0.105996 0.320003 
1.23122 -0.0550689 0.339042 1.33727 -0.121654 0.210192 0.995892 -0.129275 0.2817 
0.631775 -0.0539251 0.400128 -0.0520282 0.386305 0.813765 0.270293 0.122902 0.580728 
1.64909 0.0511713 0.445793 1.35854 0.0100371 0.424352 1.29594 0.073587 0.5694 
0.965081 0.0264593 0.50202 -1.27683 0.865712 1.19081 -1.7354 0.982406 0.842493 
-1.69538 0.991914 0.948373 0.850245 0.134886 0.715618 1.02063 0.145929 0.758251 
1.92005 0.0545242 0.343734 0.750611 0.244865 -1.15534 0.881587 0.0424438 -1.30135 
0.606643 0.689229 -1.35802 0.251679 0.328845 1.06578 0.387562 0.261008 0.909018 
-0.0111782 0.430796 1.12752 -0.597088 0.999817 1.25034 -0.52802 0.62175 1.1883 
-0.558605 0.723339 1.25371 0.678186 -0.316636 -0.495482 0.824576 -0.650796 -0.680835 
0.826836 -0.423417 -0.771947 -0.314607 -0.141503 1.23892 -0.294455 0.0741226 1.14958 
-0.36582 0.107061 1.23536 0.125801 -0.14101 0.554363 0.280754 -0.220739 0.299351 
0.157111 0.0309058 0.419971 -0.197348 0.00922753 1.02773 -0.233961 0.259586 1.00261 
-0.440577 0.109002 1.29288 -0.386571 -0.173336 1.28378 -0.412157 0.118458 1.28302 
-0.098934 -0.0743416 0.905284 -0.140764 -0.22614 1.02471 0.20092 0.811507 -0.210069 
0.17355 0.904789 -0.489865 0.0250299 1.03949 -0.383165 0.226688 -0.455699 0.541285 
0.106856 -0.295889 0.663386 0.108186 -0.458827 0.743624 1.43024 -3.35316 -0.554823 
1.36503 -3.30125 -0.544841 1.50164 -3.47465 -0.839051 -0.00385606 -0.125341 0.771977 
0.336405 -0.618219 0.446415 0.319891 -0.432551 0.346554 0.376879 -0.814058 0.530069 
0.459004 -0.817911 0.364534 0.00497661 0.240822 0.615203 -0.12386 0.33167 0.803503 
-0.0684334 0.0950032 0.793436 1.42568 -3.29608 -0.44534 1.46064 -3.26908 -0.484768 
1.37439 -3.16527 -0.22303 1.59333 -2.98656 -1.30104 1.62212 -3.22136 -1.22986 
1.70331 -3.08662 -1.66792 0.410765 -0.360764 0.109483 -0.0766177 0.824562 0.5594 
-0.24532 1.02693 0.780772 -0.242457 0.800048 0.854802 -0.407002 0.388741 1.21583 
-0.566101 0.799132 1.27633 -0.497416 0.376474 1.2395 -0.445321 0.738371 1.18002 
-0.365847 0.646438 1.0917 -0.238446 0.525316 0.930118 -0.455044 0.148952 1.25527 
-0.497666 0.45618 1.28881 0.0467067 1.17789 -0.83019 0.279509 0.812363 -0.624983 
0.634628 0.192349 -0.662892 0.462636 0.516923 -0.583391 0.478073 0.371787 -0.386369 
-0.173612 1.90279 -1.46209 -0.128296 1.60426 -1.19502 -0.297934 1.73411 -1.16588 
-0.254936 1.34924 -0.61383 -0.466406 1.76694 -1.05217 -0.645957 1.76188 -0.908958 
0.661907 -0.801519 -0.176275 0.745119 -1.03607 -0.184452 0.784281 -0.836611 -0.477282 
-0.244696 1.20648 -0.0712243 -0.507486 1.39625 -0.36272 -0.356166 1.25523 -0.00181373 
0.152938 0.26934 0.335941 0.161583 0.7953 0.0411341 0.0118469 0.982156 0.216638 
0.0641592 0.807366 0.28964 0.5899 -1.05416 0.317625 0.549501 -0.81271 0.137003 
-0.462206 1.06831 1.11397 -0.504584 0.836969 1.23102 0.346943 1.41396 -1.6166 
2.26637 -0.153763 0.39337 1.68428 0.0362851 0.594618 1.98093 -0.0975937 0.42352 
1.12689 -0.107539 -1.96513 1.3543 -0.805963 -2.00219 1.30198 -0.634576 -2.03636 
1.0338 0.253451 0.697336 0.986628 0.257795 0.589695 1.5556 0.0344006 0.490136 
2.13323 -0.205494 0.282777 2.43864 -0.148423 0.396739 2.71294 -0.27784 0.236339 
1.21141 -0.39368 -2.03393 1.13747 -0.242173 -2.02171 0.97637 0.286269 -1.97872 
1.13992 0.223397 0.770178 0.649631 0.405261 0.884679 2.40935 -0.0836137 0.462096 
2.01136 -0.0106303 0.58192 0.3426 0.558089 0.696208 0.807685 0.322762 0.522239 
-0.287013 0.828586 1.02481 0.034416 0.701565 0.853217 0.167807 0.611773 0.965805 
1.47221 0.124443 0.728908 2.05552 0.0313052 0.629676 -0.240677 0.859965 0.79345 
-0.7371 1.10269 0.910216 -0.733542 1.13437 0.789871 -0.828144 1.21054 0.667481 
-1.24612 1.4026 0.733253 -2.0191 1.67087 0.477753 -1.98663 1.73633 0.359352 
-1.66143 1.57866 0.615479 -1.39599 1.41814 0.823184 -0.53598 0.893991 1.18049 
-0.722234 1.04642 1.04447 0.883122 -2.63279 -0.282659 1.05143 -2.86545 -0.410168 
0.91324 -2.64666 -0.256269 0.834274 0.307481 1.04015 1.44807 0.146998 0.800511 
1.44346 0.157367 0.848451 -1.10369 1.24529 0.979599 -1.44943 1.37357 0.921849 
-2.72214 1.79565 -0.0129692 -2.31213 1.68448 0.352455 -2.52556 1.64844 0.258105 
-2.18596 1.4656 0.601795 -2.56055 1.54888 0.297882 -2.27002 1.35724 0.582497 
-2.7117 1.49524 0.204215 0.807235 -2.51964 -0.506975 0.767766 -2.41201 -0.57608 
0.956033 -2.54753 -0.797352 -3.05257 1.62134 -0.134834 -2.75196 1.40769 0.181195 
-1.87297 1.5338 0.693389 -1.67353 1.28207 0.993571 -1.56484 1.33674 0.975452 
-1.16005 1.08397 1.25676 1.2185 -3.11371 -0.63307 1.18723 -3.06198 -0.480657 
-0.635453 0.8665 1.31529 1.49724 -2.17775 -2.03926 1.60995 -2.8 -1.9575 
1.43006 -2.23093 -1.90801 -1.52809 1.71134 -0.573061 -0.948514 1.2325 0.283277 
-0.693652 1.24781 0.633197 -2.17225 2.21487 -1.06743 -1.73942 1.68261 -0.53535 
-1.92306 1.59416 -0.435352 -1.36476 1.34431 -0.0556844 -1.20723 1.89147 -0.830392 
-0.807158 1.52409 -0.428135 -0.876411 1.69092 -0.674276 -1.58988 1.22501 0.113275 
-1.18341 1.06295 0.55598 -1.096 1.10299 0.515689 -0.80076 1.74618 -0.792312 
-1.168 2.34434 -1.31648 -0.77332 2.45856 -1.56436 -0.121621 -1.02328 0.529759 
-0.187572 -0.91694 0.676438 -0.179793 -0.219611 0.603493 0.0464383 -0.31838 -0.0209592 
-0.0555048 0.565784 0.0538514 0.0135895 0.364974 -0.10425 0.351181 -1.78409 -0.29107 
0.249344 -1.37118 -0.218791 0.343422 -1.47999 -0.389316 -0.361427 2.4765 -1.7908 
-1.62761 2.25799 -1.14 -0.43881 1.25531 1.00878 -0.385737 1.32681 0.855834 
-0.485248 1.36274 1.02068 0.213017 -0.911987 -0.268969 0.146833 -0.997166 -0.0958597 
-2.64601 1.27421 0.0457997 -2.70492 1.28683 0.121059 -2.20569 1.11345 0.449933 
-1.69036 1.03194 1.00756 -1.73565 1.12546 1.00761 -1.19274 0.900841 1.362 
0.575286 -2.31846 -0.345206 0.400493 -2.29448 -0.047918 0.383386 -2.20924 -0.115255 
-2.74637 1.33873 0.158738 -3.06637 1.44464 -0.170776 -3.01349 1.49286 -0.36385 
-2.5754 1.29902 -0.0422209 -2.25954 1.18905 0.56043 -2.12413 1.40804 -0.211687 
-2.10513 1.53658 -0.374196 -2.61805 2.03468 -0.913146 -1.81455 1.16075 0.203957 
-2.36396 1.39846 -0.209274 -2.95281 1.78972 -0.702756 -2.47731 1.3348 -0.113729 
-0.056298 -0.950196 0.364736 -0.0390919 -1.55018 0.44044 -1.96955 1.08193 0.391821 
0.0852531 -1.85311 0.273306 0.0912762 -1.5355 0.166346 0.214862 -1.98049 0.0683883 
-0.754671 0.902414 1.22561 -0.818602 0.96322 1.10653 -1.02316 0.908453 1.0248 
0.81694 -2.00889 -1.03982 0.876257 -2.1334 -1.02682 0.800473 -2.1685 -0.880373 
-0.000881558 -0.896418 0.223394 0.0687604 -0.981307 0.0788248 -1.19186 0.858933 1.10911 
-1.49481 0.934158 0.820923 -1.66712 0.962356 0.790186 -0.504485 1.30667 -0.0225364 
-0.342565 1.26334 0.32175 0.963434 -2.19562 -1.11726 0.905457 -1.9733 -1.18565 
0.0862982 2.23979 -1.92527 0.510946 1.23597 -1.71208 -0.681899 1.31029 0.102113 
-0.705737 1.3752 -0.130772 0.800944 -1.45552 0.296254 0.748193 -1.24608 0.0980697 
0.704676 -1.27958 0.321071 0.647201 -1.26756 0.491203 1.1799 -1.47703 -1.1095 
1.10624 -1.05492 -1.14561 1.05248 -1.25864 -0.909841 0.89222 -1.67901 0.409899 
0.90464 -1.60708 0.119331 0.981478 -1.88263 0.479548 0.904121 -1.7681 0.665222 
1.30148 -0.936519 -1.67539 1.27154 -0.684572 -1.79956 1.1346 -0.371681 -1.65425 
1.12415 -2.22803 0.539003 1.0543 -2.0534 0.521098 1.08738 -2.16404 0.811506 
1.33094 -2.65218 -0.296267 1.25882 -2.46842 -0.134058 1.26583 -2.58523 0.148 
1.20202 -2.46908 0.747035 1.23212 -2.5416 0.473747 1.18646 -2.40026 0.527239 
1.18008 -2.3226 0.196206 1.03826 -1.94112 0.181506 1.40062 -3.00166 -0.25427 
1.38593 -2.86009 -0.331155 1.32988 -2.82445 0.0530712 1.23212 -2.08322 -0.711849 
1.11094 -1.98114 -0.241521 1.20259 -2.24336 -0.254504 0.9628 0.357559 -1.91934 
0.839309 0.663698 -1.87227 1.12915 -0.17285 -1.86585 0.993366 -0.108397 -1.48021 
0.863974 0.361725 -1.63716 -0.0746734 -0.157941 0.276567 0.69238 0.953359 -1.79961 
0.490943 1.62989 -1.95046 0.905389 0.531889 -1.95572 1.55328 -1.50906 -2.19221 
1.448 -1.11321 -2.12024 1.62857 -1.7715 -2.18696 1.27113 -2.66457 0.336589 
1.61575 -1.80747 -2.23779 1.36813 -0.97068 -2.11565 1.69644 -2.23999 -2.12749 
1.61873 -1.83542 -2.09487 1.44629 -3.148 -0.420659 1.54627 -3.29851 -0.830272 
0.770757 0.895258 -1.96178 1.29036 -2.77088 0.315014 1.45308 -2.8118 -0.818182 
1.01467 -1.77472 -0.124222 1.12789 -0.324968 -2.01637 1.30764 -2.87421 0.215089 
1.2627 -2.72598 0.484309 0.936781 -1.51705 -0.23249 1.31734 -3.02317 0.00736654 
1.31765 -2.95546 0.111219 1.27099 -2.89667 0.204925 1.58054 0.135649 0.812101 
1.34282 -3.20032 -0.315508 1.29745 -3.05663 -0.0823366 1.26771 -3.05696 -0.153763 
1.2196 -2.93956 -0.0211299 1.36537 -3.00925 -0.061927 1.16273 -2.94786 -0.226357 
1.25053 -3.11065 -0.347486 1.25138 -3.06918 -0.233297 1.07882 -2.83388 -0.231661 
1.00517 -2.73552 -0.229953 1.11697 -2.92783 -0.332044 1.09525 -2.81943 -0.155899 
1.40293 -1.38519 -2.1133 1.65516 -2.0828 -2.25488 1.64132 -2.2304 -2.2183 
0.883524 -2.53376 -0.143983 0.904375 -2.60023 -0.200084 1.76895 -3.14493 -1.88997 
1.76847 -2.87867 -2.03572 1.78845 -3.18655 -1.98214 1.76792 -3.21239 -1.97432 
1.7527 -2.80931 -2.18093 1.24333 -3.13293 -0.453668 0.770432 -2.43171 -0.130765 
0.624087 -2.2365 -0.0151529 0.652026 -2.30728 -0.0557424 0.791808 -2.53522 -0.237362 
0.726151 -2.42673 -0.140945 0.574149 -2.25207 -0.00485576 0.508839 -2.23559 0.0381175 
0.422897 -2.13027 0.131322 0.804056 -2.57074 -0.310505 0.625314 -2.37374 -0.0968382 
0.182867 -2.03929 0.374663 0.297622 -2.12705 0.246084 0.290798 -2.06661 0.260706 
0.351532 -2.04982 0.203149 -0.0775451 -1.97855 0.678572 0.0548192 -2.06992 0.517578 
0.0578501 -2.01553 0.516688 0.054951 -1.95889 0.519527 -0.199573 -1.85642 0.82425 
-0.177479 -1.90029 0.796101 0.359823 -2.26991 0.13053 0.341691 -2.2077 0.181583 
0.18537 -2.16166 0.354731 1.65489 -2.52389 -1.86179 1.5147 -2.3798 -1.50289 
1.54811 -2.69297 -1.37491 0.440065 -2.23242 0.0892621 1.04393 -2.45348 -1.06073 
1.13696 -2.73061 -1.01014 0.591641 -2.40427 -0.180191 0.379794 -2.30603 0.053508 
1.76027 -2.48632 -2.24227 0.265243 0.448158 1.26161 -0.0545401 -2.05159 0.629638 
0.0203267 -2.09771 0.551489 -0.118851 -1.98147 0.720411 0.915611 0.174749 -1.93435 
1.14525 -0.552744 -2.00112 1.15002 -0.795071 -1.96057 0.0334947 -1.9929 0.424535 
1.13343 -0.972382 -1.90392 0.964792 -0.430063 -1.85366 1.1436 -1.18989 -1.85913 
1.31594 -1.53526 -1.98017 0.354463 -2.03146 -0.180103 0.478952 -2.00201 -0.444153 
1.07511 -1.19873 -1.77061 1.24039 -1.66136 -1.8343 1.21507 -3.07217 -0.772519 
1.39323 -3.32686 -0.9378 1.01356 -1.40001 -1.62263 1.04508 -1.31435 -1.69391 
1.16423 -1.76206 -1.68419 1.04948 -2.21136 -1.25354 1.01939 -2.80428 -0.598332 
1.19664 -2.95279 -0.912099 0.92448 -0.822066 -1.71155 1.56798 -2.19071 -2.13637 
1.0598 -1.84251 -1.49005 0.948511 -1.59631 -1.45277 0.980792 -1.49346 -1.54172 
0.900711 -1.18565 -1.56476 0.902983 -1.7818 -1.29987 0.917872 -1.67855 -1.37356 
0.98583 -1.91587 -1.33717 0.717558 -2.28276 -0.63494 0.86393 -1.46489 -1.4117 
0.853457 -1.79295 -1.23432 0.692281 -2.14233 -0.730843 0.592702 -2.05917 -0.627178 
0.679905 -2.00247 -0.833751 0.773144 -1.87413 -1.08639 0.813929 -1.84164 -1.15933 
0.18413 -2.21164 0.275742 0.73358 -1.77286 -1.11495 0.721306 -1.89217 -0.997874 
0.652918 -1.87509 -0.88723 0.576705 -1.80375 -0.770596 0.616783 -1.7361 -0.905967 
1.3515 -2.70284 -1.50439 1.19973 -2.24113 -1.50524 1.2897 -2.25706 -1.65635 
0.801274 -1.64267 -1.26621 -0.016073 -2.05771 0.550118 1.71885 -3.47628 -1.61545 
1.71292 -3.24243 -1.86857 -0.265543 -1.39556 0.873731 -0.220697 -1.63827 0.814369 
-0.220374 -1.78332 0.836764 -0.146386 -1.84872 0.718029 -0.234847 -0.694163 0.787263 
-0.204071 -1.37727 0.752326 -0.265214 -0.701866 0.867423 -0.2633 0.217339 0.898342 
-0.288245 -1.01968 0.911387 -0.206573 0.758763 0.588109 -0.249802 0.973076 0.776525 
-0.29144 1.36138 0.998557 -0.34092 2.46697 1.08451 -0.371573 3.14258 1.02462 
-0.368562 3.34415 0.821249 -0.287517 2.08563 0.706011 -0.201663 1.14016 0.479558 
-0.42263 3.86512 1.39278 -0.397762 4.09228 0.72853 -0.329265 3.14335 0.535028 
-0.31361 1.55901 1.18516 1.34874 -0.845635 -1.91825 -0.149252 0.812706 0.330856 
-0.112926 0.773675 0.200481 0.393277 -1.40848 -0.525039 0.290423 -1.0463 -0.40648 
1.31911 -2.11466 -1.77156 0.422869 -1.28613 -0.633841 0.494369 -1.67108 -0.651922 
0.197681 -0.478784 -0.349986 0.541216 -1.90132 -0.633825 -0.258505 2.56922 0.287136 
-0.193293 2.20214 0.0759845 -0.158491 1.58736 0.13933 -0.242829 2.03185 0.417553 
0.0764864 0.282753 -0.254817 -0.0645592 1.26915 -0.121407 -0.186765 2.46039 -0.048766 