# vtk DataFile Version 3.0
vtk output
ASCII
DATASET POLYDATA
POINTS 853 float
14.7862 -1.50529 30.3198 14.7697 -2.53839 30.1396 14.7734 -3.53805 30.0034 
14.786 -4.52235 29.8245 14.7804 -5.54771 29.5674 14.7744 -6.55792 29.1407 
14.7261 -7.48524 28.4324 14.6295 -8.36262 27.4159 14.5418 -9.16233 26.2942 
14.4723 -9.89161 25.3001 14.4235 -10.6594 24.3971 14.4048 -11.4632 23.5681 
14.412 -12.3057 22.7004 14.4055 -13.1756 21.6835 14.3868 -13.9992 20.5658 
14.4305 -14.7353 19.2978 14.4183 -15.2594 18.0305 14.3518 -15.5856 16.8243 
14.2586 -15.7659 15.6257 14.0288 -15.93 14.4488 13.6343 -16.0939 13.3461 
13.133 -16.0534 12.3413 12.6065 -15.5686 11.6099 12.0494 -14.4875 11.2735 
11.356 -12.8137 11.2691 10.7019 -11.0692 11.4775 10.3427 -9.7234 11.8631 
10.3674 -8.78909 12.5018 10.6467 -8.1235 13.378 10.7806 -7.5039 14.3362 
10.6212 -6.84562 15.2373 10.498 -6.33188 16.0751 10.5921 -6.01817 16.8749 
10.7879 -5.7444 17.6648 10.9597 -5.37493 18.4404 11.0661 -4.8233 19.1501 
11.1737 -4.17017 19.8341 11.3336 -3.44413 20.5785 11.5628 -2.79883 21.4355 
11.7926 -2.24409 22.3928 12.0204 -1.63557 23.3424 12.3042 -1.00688 24.1683 
12.6219 -0.339123 24.8387 12.9091 0.341484 25.3919 13.1596 1.01887 25.94 
13.373 1.83738 26.4538 13.5347 2.77829 26.9363 13.6792 3.80069 27.4556 
13.867 5.01614 28.026 14.1424 6.61172 28.6526 14.4927 8.45309 29.3304 
14.9092 9.81767 30.095 15.3111 10.1098 30.819 15.5482 9.20118 31.2812 
15.5936 7.13241 31.4083 15.4651 4.75165 31.3558 15.2756 2.96983 31.1885 
15.0951 1.65867 30.9319 14.9299 0.546653 30.7178 14.8209 -0.477576 30.5403 
14.7645 -1.13707 29.8762 14.7365 -1.8011 29.8515 14.7297 -2.65902 29.4606 
14.7407 -3.21369 29.5052 14.723 -4.0556 29.2176 14.7162 -4.6971 29.1696 
14.6499 -5.38368 28.709 14.6662 -5.95812 28.6334 14.5947 -6.68023 28.0191 
14.5769 -7.30221 27.5747 14.4393 -7.77978 26.7548 14.3885 -8.27079 26.1426 
14.3039 -8.86702 25.2835 14.2972 -9.40018 24.7409 14.1755 -9.80287 24.032 
14.1963 -10.3753 23.6239 14.1176 -10.9587 22.8891 14.0441 -11.4958 22.2415 
13.9895 -12.0351 21.4465 13.9755 -12.6151 20.9211 13.9188 -13.2514 19.9528 
13.8106 -13.6641 19.1925 13.7185 -14.0294 18.2176 13.653 -14.3822 17.523 
13.5359 -14.6577 16.5583 13.3774 -14.6943 15.9168 13.3233 -14.9359 15.0633 
13.1385 -14.9892 14.2913 12.9366 -15.1796 13.4099 12.6357 -14.9097 12.9332 
12.3946 -14.8615 12.3359 12.0545 -14.3357 12.0324 11.6183 -13.4074 11.9378 
11.1983 -12.4303 11.9866 10.8122 -11.5242 12.0036 10.5186 -10.6739 12.2107 
10.3381 -9.98027 12.7592 10.2827 -9.51019 13.1965 10.3221 -9.1225 13.8756 
10.4584 -8.73833 14.5153 10.5919 -8.34524 15.2891 10.7467 -8.12188 15.9093 
10.8821 -7.81393 16.6182 11.0273 -7.54868 17.1008 11.215 -7.14226 17.8495 
11.3994 -7.06059 18.3801 11.5631 -6.56606 19.1958 11.5926 -6.24144 19.6402 
11.6972 -5.6601 20.2985 11.7435 -5.34766 20.746 11.9151 -4.67098 21.4657 
11.9955 -4.22014 21.8844 12.198 -3.6783 22.599 12.2881 -3.31669 23.1136 
12.4407 -2.6384 23.9025 12.6022 -2.21742 24.3613 12.7915 -1.54823 24.9845 
12.9476 -1.03063 25.3845 13.0137 -0.374825 25.7195 13.2349 0.132021 26.0929 
13.3958 0.889543 26.4932 13.5944 1.3274 26.8918 13.6738 2.12336 27.1995 
13.8533 2.81691 27.5726 13.9775 3.8863 27.9745 14.1603 4.76191 28.3966 
14.3141 5.9866 28.821 14.4813 6.97637 29.1908 14.7142 8.29732 29.6617 
14.9022 8.60415 30.0492 15.1029 8.96849 30.4239 15.2553 8.57384 30.7437 
15.3042 7.17142 30.9122 15.3172 5.80525 31.0596 15.2001 4.2376 30.8721 
15.1695 3.29281 30.8805 15.0288 2.07624 30.603 14.9365 1.29517 30.5572 
14.8445 0.398663 30.1804 14.808 -0.196849 30.1798 14.9917 7.09091 30.2518 
14.7661 7.17695 29.7742 15.0101 5.20439 30.4737 14.5162 5.31115 29.2313 
14.7592 5.69127 29.8432 14.8895 2.9988 30.2414 14.2758 3.3211 28.5897 
14.6412 3.8539 29.5675 14.7474 1.24549 29.8466 14.0378 1.6556 27.9218 
14.5767 -1.82897 28.9397 14.6371 -0.31422 29.3949 13.5607 -1.07028 26.5678 
13.7962 0.233659 27.2509 11.3565 -12.6527 12.6867 13.0374 -4.71918 23.9612 
13.1882 -3.60481 24.9192 14.5017 2.03819 29.0881 13.4685 -2.19281 25.9743 
11.9093 -13.7324 12.8123 10.8387 -11.4598 12.7774 14.3399 -5.61063 27.2261 
14.4923 -4.50472 28.0192 14.5167 -3.27221 28.3933 13.7027 -9.27217 23.1122 
13.3359 -11.0762 20.7765 11.5723 -4.5698 20.7309 12.7636 -5.69091 22.8664 
11.2527 -6.36417 18.4945 12.1342 -2.56288 23.2359 12.175 -13.7723 13.9286 
10.7179 -10.7499 13.8449 14.2233 -6.67238 26.363 13.8662 -8.4192 24.1037 
12.2919 -7.66292 20.4202 11.9609 -8.41902 18.8892 14.125 -7.42408 25.5951 
12.7506 -3.61702 23.975 12.4162 -6.60209 21.6337 13.5419 -10.0502 22.1099 
12.838 -12.6893 17.9513 14.352 0.486812 28.5623 12.256 -5.71643 21.7467 
11.9502 -7.69807 19.406 11.4831 -12.5534 13.5514 12.3436 -13.5155 15.1353 
10.8349 -10.3376 15.0318 13.1273 -11.918 19.4496 11.6045 -9.1267 17.4732 
12.5659 -13.2724 16.5608 11.2123 -9.7983 16.2921 13.602 -4.77448 25.2705 
14.213 -0.877984 28.0837 11.4869 -12.1358 14.7407 12.7016 -4.94071 23.1183 
13.4967 -5.95946 24.531 11.6639 -8.54395 18.1117 12.2978 -6.99387 20.9695 
13.178 -7.02932 23.1832 12.7264 -9.06003 20.5889 13.958 -4.40086 26.332 
12.4092 -10.0466 19.0649 12.9843 -8.41719 21.823 14.1612 -3.81328 27.1358 
14.0179 -3.03607 27.0617 13.1987 -12.7737 18.7084 12.5455 -11.2609 18.5746 
13.4328 -11.9061 20.2536 12.8495 -10.64 19.9769 12.7224 -13.8936 15.7617 
12.0393 -12.5556 16.0069 11.8436 -11.4699 16.8163 12.9367 -13.5039 17.2002 
12.338 -12.2513 17.3404 11.9953 -10.6949 17.5799 10.786 -9.54354 15.4606 
11.3148 -10.864 15.9593 11.2674 -9.11508 16.7519 13.1487 -7.87277 22.6284 
13.8823 -7.60062 24.6239 13.6356 -6.6827 24.4107 12.1085 -10.0068 18.2245 
13.8476 -5.71803 25.6057 13.2946 -10.2774 21.2667 13.0009 -9.09889 21.3684 
13.5425 -3.23803 25.7788 14.1088 -2.16485 27.5347 11.5384 -11.8238 15.5467 
12.5742 -9.45752 19.9786 14.1152 -14.4925 18.6935 13.8023 -13.952 18.6483 
14.02 -14.5685 18.1811 11.6351 -4.93712 20.7044 11.9793 -5.55782 21.2007 
11.8651 -5.09517 21.167 13.7047 -14.2191 17.9009 14.0515 -14.8646 17.7218 
14.002 -15.0173 17.2116 14.3739 -15.4399 17.4249 14.1386 -14.2412 19.2419 
14.4434 -15.0318 18.6543 11.7252 -4.57969 21.0712 11.6369 -4.12535 21.0592 
11.4426 -4.08436 20.6087 13.9581 -12.962 20.4536 14.176 -13.6731 20.2374 
14.1822 -13.297 20.8081 14.3799 -13.5909 21.1485 14.2094 -12.9564 21.2671 
13.3342 -13.4808 18.0855 13.2558 -13.6237 17.7539 14.1675 -13.992 19.7094 
13.8537 -13.4403 19.5809 13.5548 -12.6592 19.7236 13.4839 -12.8395 19.3891 
14.4075 -14.3861 19.9422 11.3296 -7.10594 18.1582 11.5983 -7.79522 18.3642 
11.6757 -7.68305 18.6392 13.4509 -13.4116 18.483 13.0395 -12.7333 18.3525 
13.5892 -15.5113 14.3283 13.4407 -15.5722 13.858 13.853 -16.0206 13.8866 
11.3134 -6.68821 18.4182 11.0446 -6.08956 18.1369 11.1155 -6.49634 18.0423 
11.7176 -13.1666 13.2294 11.4165 -12.6176 13.0674 11.597 -13.1151 12.7675 
13.2649 -15.6291 13.3672 13.0146 -15.0571 13.8241 13.2352 -14.9535 14.6895 
13.6999 -15.4562 14.7723 13.0783 -15.6235 12.9373 13.387 -16.1163 12.8332 
13.9156 -15.2461 16.1483 14.3199 -15.6925 16.2276 13.959 -15.1533 16.6512 
13.6108 -14.5642 17.0304 12.8835 -13.156 17.5569 13.255 -13.9007 17.3483 
13.7894 -15.3775 15.2674 13.7607 -15.1823 15.7668 13.4108 -14.8771 15.5136 
13.4673 -14.6993 16.1953 10.7972 -9.87436 15.2723 10.5916 -9.1668 15.0406 
10.567 -9.44031 14.7691 13.0329 -14.2982 15.8346 12.9881 -14.389 15.4219 
14.1585 -15.8415 15.0278 12.2725 -5.14231 22.0459 12.3431 -4.94851 22.3194 
11.9523 -4.48504 21.6493 12.3925 -13.3025 15.885 12.6389 -13.6154 16.1217 
12.2687 -12.8632 16.3021 13.3785 -11.4967 20.54 13.6942 -12.2416 20.5681 
13.6904 -11.8919 20.9042 13.5849 -7.33078 23.9629 13.7235 -7.10641 24.4178 
13.3903 -6.78916 23.7521 14.4057 -11.8781 23.1493 14.2875 -11.2654 23.2156 
14.2749 -11.6266 22.8388 14.2369 -9.58397 24.3869 14.1495 -8.9794 24.544 
14.0389 -9.15595 24.076 14.3008 -10.8794 23.6131 14.1444 -10.5846 23.2873 
14.2403 -12.3077 22.069 14.419 -12.7421 22.2121 14.2552 -11.9476 22.4879 
14.3151 -10.5493 23.9592 14.4101 -11.0611 23.9734 12.3768 -6.80944 21.3398 
12.049 -6.16742 20.9378 11.9818 -6.32977 20.6006 14.3904 -9.64451 25.004 
14.3609 -9.95365 24.6177 14.4467 -10.2619 24.8472 14.6622 -2.89167 29.0368 
14.6694 -2.35205 29.2061 14.5423 -2.56133 28.6199 14.306 -10.1812 24.213 
14.4136 -9.36875 25.3696 14.2923 -9.12893 24.9819 14.5034 -9.52886 25.7798 
14.4463 -9.05692 25.799 13.9779 -9.50516 23.6731 14.0076 -9.93567 23.4171 
14.1772 -10.0918 23.8199 14.6799 -3.28514 29.0878 14.645 -3.74511 28.8191 
14.731 -3.5983 29.3417 14.2518 -4.55011 27.1523 14.3193 -4.1136 27.5052 
14.0748 -4.10052 26.7663 14.1053 -8.58337 24.7393 13.335 -8.83722 22.4698 
13.2775 -9.21941 22.0497 13.5936 -9.65947 22.5548 14.09 -11.2622 22.5563 
13.692 -11.5844 21.1498 14.0094 -12.3513 21.2263 13.7969 -10.7757 22.1825 
13.858 -10.5265 22.5457 13.9011 -10.1281 22.9806 14.1969 -12.5405 21.6035 
14.0153 -11.8089 21.8232 11.7282 -5.48929 20.5627 12.0473 -5.94254 21.1397 
12.6967 -6.37192 22.4212 12.3704 -6.22024 21.7612 12.7904 -6.87829 22.3764 
11.3778 -4.35844 20.3378 11.4751 -4.84893 20.3177 11.42 -4.96303 20.023 
11.6311 -5.92665 19.9565 11.3735 -5.23302 19.7112 11.3143 -5.55791 19.3686 
14.1609 -7.97267 25.3894 14.2405 -7.82775 25.8371 13.9985 -7.46704 25.0991 
11.9248 -6.90858 20.006 11.5823 -6.44127 19.3909 11.8783 -7.05098 19.7077 
13.7638 -8.79765 23.581 12.7305 -7.46362 21.8013 12.654 -7.69065 21.4249 
13.0598 -8.13335 22.2153 14.4897 -8.71122 26.2947 14.336 -8.54448 25.6845 
13.4489 -10.2175 21.7283 13.708 -10.9334 21.819 11.6527 -3.80284 21.2507 
12.5195 -15.221 12.0038 12.1981 -14.5733 12.2011 12.3046 -14.8955 11.804 
12.1841 -2.90174 23.1352 12.5073 -3.50014 23.5096 12.3833 -3.02683 23.5394 
11.8517 -13.9155 11.9959 11.8005 -13.8774 11.5863 12.0697 -14.4477 11.6662 
12.3413 -15.1075 11.3933 12.7464 -15.4386 12.291 12.871 -15.8783 11.9233 
12.2704 -2.56461 23.5576 12.2258 -2.16671 23.6423 12.0518 -2.15369 23.227 
11.9506 -14.0211 12.3657 11.7249 -13.5238 12.3722 12.8699 -15.4291 12.6739 
[...]
POINT_DATA 853
VECTORS velocity double
1.00242 -2.74735 -0.207668 1.17303 -2.96125 -0.157547 1.25812 -2.99042 0.027001 
1.28066 -2.87353 0.288793 1.2494 -2.64556 0.584715 1.16418 -2.35311 0.783012 
1.01706 -1.99492 0.756914 0.792235 -1.52901 0.581719 0.517571 -1.03414 0.51355 
0.239219 -0.623967 0.652354 -0.0312442 -0.324211 0.913948 -0.247009 -0.17051 1.17093 
-0.375634 -0.145171 1.31498 -0.377826 -0.229061 1.22903 -0.226416 -0.390802 0.875957 
0.0816828 -0.50724 0.408501 0.512149 -0.442223 0.14863 1.0353 -0.23865 0.146962 
1.61676 -0.0151119 0.273966 2.19339 0.0829649 0.372196 2.63912 -0.00834651 0.364294 
2.7912 -0.200839 0.286198 2.49762 -0.265375 0.260017 1.5757 0.0293244 0.401707 
-0.0236977 0.813164 0.655048 -1.46802 1.5881 0.5781 -2.42523 1.85737 0.193653 
-2.98333 1.77983 -0.0615921 -3.15737 1.5846 -0.124281 -3.12442 1.51914 -0.237434 
-3.08433 1.74121 -0.536786 -2.89541 2.07662 -0.847133 -2.48494 2.29699 -1.02592 
-1.97124 2.40699 -1.13461 -1.47 2.47855 -1.27082 -1.04318 2.5856 -1.50732 
-0.623221 2.63967 -1.7639 -0.173752 2.53431 -1.97651 0.276716 2.07941 -2.06108 
0.646935 1.33018 -2.07599 0.86374 0.551968 -2.06115 0.950043 -0.144851 -1.98907 
0.947655 -0.681294 -1.85876 0.908696 -1.06574 -1.69737 0.879776 -1.40511 -1.53064 
0.829787 -1.64072 -1.36305 0.765097 -1.79148 -1.20589 0.675686 -1.84156 -1.01893 
0.51769 -1.60714 -0.764806 0.269333 -0.670397 -0.484354 -0.0609506 1.40296 -0.193191 
-0.356765 3.63814 0.400677 -0.46733 4.35338 1.20569 -0.424684 3.12337 1.48835 
-0.315035 0.247156 1.08175 -0.27048 -1.5949 0.922843 -0.0707834 -1.96627 0.676081 
0.217227 -2.05018 0.337354 0.50722 -2.20124 0.0548268 0.767448 -2.44443 -0.125091 
1.04631 -2.88786 -0.360995 1.15867 -3.03062 -0.356796 1.32978 -3.26257 -0.425234 
1.34588 -3.21804 -0.291993 1.38615 -3.14691 -0.200894 1.35169 -2.96298 0.00643519 
1.31963 -2.74198 0.0152592 1.24032 -2.50594 0.22513 1.12262 -2.13662 0.187508 
0.987478 -1.80961 0.229828 0.836564 -1.40436 0.0893226 0.667563 -1.05267 0.134934 
0.418697 -0.58698 0.283972 0.215601 -0.309857 0.498756 0.00499657 0.0268277 0.709252 
-0.159431 0.136094 0.935256 -0.35286 0.33515 1.16341 -0.469439 0.421393 1.29 
-0.525148 0.457446 1.29425 -0.482075 0.306644 1.19875 -0.337825 0.148052 0.916494 
-0.161274 0.0414714 0.683618 0.115904 -0.0178467 0.49246 0.40712 -0.0587439 0.407233 
0.818675 0.00101396 0.450309 1.05665 0.0752814 0.558311 1.49144 0.117503 0.621044 
1.77442 0.130317 0.679116 2.1208 0.0585699 0.622687 1.98036 0.0530079 0.648502 
1.96173 0.000618597 0.566146 1.46675 0.138804 0.625996 0.55151 0.514397 0.791788 
-0.35446 0.957296 0.916485 -1.09682 1.34278 0.873357 -1.70713 1.57744 0.73919 
-2.10221 1.56763 0.664851 -2.31854 1.49183 0.58649 -2.35807 1.32746 0.582856 
-2.34755 1.2223 0.510961 -2.21457 1.18332 0.387912 -2.00579 1.20156 0.304632 
-1.7661 1.29472 0.152928 -1.59906 1.39099 0.0251297 -1.3086 1.53162 -0.158828 
-1.03314 1.52663 -0.14933 -0.688018 1.55953 -0.353983 -0.491828 1.53999 -0.509877 
-0.160642 1.4344 -0.798199 0.0728936 1.28079 -0.962666 0.471817 0.944613 -1.32341 
0.686739 0.7208 -1.55345 1.00649 0.186635 -1.83011 1.18186 -0.206929 -1.98548 
1.34418 -0.774332 -2.14248 1.38664 -1.11956 -2.16954 1.3599 -1.4919 -2.08665 
1.29721 -1.67915 -1.96505 1.17175 -1.68662 -1.7892 1.11017 -1.84934 -1.63718 
0.999412 -1.90329 -1.44131 0.957306 -2.05205 -1.28711 0.851439 -2.04189 -1.13832 
0.753439 -2.08252 -0.956012 0.601814 -1.98994 -0.745382 0.441141 -1.78549 -0.505335 
0.251903 -1.14394 -0.30658 0.0895404 -0.295076 -0.151767 -0.135463 1.3413 0.0787471 
-0.24183 1.8953 0.369462 -0.337606 2.56178 0.70476 -0.337419 2.06188 0.923726 
-0.266809 0.190585 0.863913 -0.255472 -1.09663 0.872183 -0.15495 -1.9004 0.76465 
-0.0543 -2.05075 0.654588 0.209573 -2.16165 0.338704 0.385202 -2.2092 0.154288 
0.665087 -2.43652 -0.12084 0.794546 -2.55156 -0.201921 -0.160865 -0.0197994 0.503038 
-0.0667025 -0.0029779 0.206568 -0.125029 -1.59443 0.643722 0.185127 -1.59516 -0.0170607 
0.00200237 -1.34802 0.318308 0.147106 -2.236 0.377946 0.538007 -2.24433 -0.423068 
0.220154 -2.18361 0.153107 0.57187 -2.43645 -0.0961984 0.883885 -2.41092 -0.882576 
1.36614 -3.38048 -0.757519 1.00689 -2.87678 -0.495043 1.46959 -2.76656 -1.75655 
1.18656 -2.60293 -1.31123 -0.129117 0.775961 1.12197 1.43934 -1.25483 -1.83267 
1.71019 -2.1335 -2.22041 0.606676 -2.457 -0.293362 1.67582 -2.77824 -2.09805 
0.874938 0.364782 0.950287 -1.06371 1.19743 1.13984 1.37495 -2.48623 -0.787988 
1.5125 -3.1285 -0.781449 1.556 -3.49814 -0.899824 -0.0814975 0.551643 0.663271 
-0.617264 1.09428 1.27429 0.0436763 1.62012 -1.38418 0.924321 -0.195749 -1.11789 
-1.1364 1.79681 -0.575077 1.08439 0.0768499 -2.06541 0.8439 0.325079 1.09136 
-1.32522 1.08702 1.29434 1.10711 -1.69052 -0.625615 0.334577 -0.0433193 0.128125 
-0.27362 1.27516 0.299343 -0.685511 1.35264 0.602958 0.841439 -1.06127 -0.40064 
1.50599 -1.24121 -2.11231 0.29143 0.743208 -0.359346 -0.409063 0.944878 1.0663 
-0.253628 0.572518 0.92616 1.01091 -2.78822 -0.744886 0.510015 0.582976 -0.844707 
-0.550773 1.37353 0.293918 -0.16634 0.679993 1.33523 0.498009 0.330627 1.11897 
-1.2185 0.898238 1.33039 -0.547018 0.912281 1.12852 -0.950856 1.11568 0.850958 
0.151389 0.361518 0.946011 -1.08583 0.909348 1.13471 1.6235 -2.17891 -1.89418 
1.36646 -3.24318 -1.1287 -0.371451 0.629497 1.49639 1.16004 -0.514543 -1.53402 
1.23031 -1.2098 -1.3156 -0.874496 1.25867 0.61416 -0.00370969 1.0623 -0.0702906 
0.603189 0.0469434 -0.463708 -0.472892 1.40405 0.883856 1.6944 -2.85407 -1.75646 
-0.662095 1.35554 1.1062 -0.134392 1.05 0.526059 1.70656 -3.30958 -1.53545 
1.74547 -3.43977 -1.70539 -0.323071 0.539799 0.89422 -0.584899 1.08799 1.16472 
-0.575882 0.83949 1.20917 -0.640293 1.32922 1.21179 0.63238 0.239075 0.883432 
-0.128312 0.509607 1.27356 -0.515282 0.773408 1.30929 0.140081 0.282871 0.748839 
-0.311397 0.674821 1.10766 -0.664715 1.00897 1.21209 -1.46791 0.951893 1.04053 
-0.783395 0.78095 1.41451 -1.17327 1.02244 0.852321 0.196166 0.602195 0.119058 
0.674494 -0.535483 -0.354323 0.962547 -0.806138 -0.884071 -0.712233 1.2078 1.09311 
1.39187 -1.89941 -1.38256 -0.549958 1.1953 1.18148 -0.369726 1.25927 0.853331 
1.78283 -2.80548 -2.17402 1.63899 -3.51805 -1.48879 -0.462221 0.6399 1.47718 
-0.583181 1.45032 1.00314 0.145489 -0.29202 0.383498 0.00560967 -0.0355386 0.537055 
0.289305 -0.23667 0.329225 0.0447628 1.46233 -1.18896 0.290994 0.943336 -0.86151 
0.302976 1.05998 -1.10014 0.250829 -0.0535655 0.435976 0.507989 -0.257271 0.250701 
0.72641 -0.201483 0.246345 0.762267 -0.350604 0.123244 -0.0234378 -0.267465 0.52764 
0.285473 -0.500173 0.240204 0.251708 1.32256 -1.35941 0.220572 1.56824 -1.58023 
-0.0754399 2.02407 -1.65282 -0.421194 0.219009 1.06918 -0.270127 -0.144403 0.873444 
-0.370155 -0.0542365 1.07146 -0.322739 -0.304587 1.08568 -0.42469 0.0164778 1.20054 
-0.0343467 0.240112 0.671984 0.076358 0.206302 0.64224 -0.149084 -0.221159 0.681527 
-0.26303 0.105222 0.805004 -0.441944 0.52076 1.01926 -0.379206 0.465519 0.934954 
-0.0905507 -0.465769 0.634152 -1.14214 1.52721 -0.146402 -0.899178 1.35853 0.267873 
-0.808429 1.381 0.231525 -0.12248 0.243477 0.695811 -0.291206 0.561119 0.898716 
2.07857 0.09396 0.506789 2.26586 0.0684948 0.51075 2.44258 0.0594767 0.381016 
-1.10041 1.65992 -0.375668 -1.47028 2.03955 -0.81638 -1.40006 1.81216 -0.553047 
0.341425 0.527263 1.16496 -0.139281 0.732743 1.2254 0.289179 0.587514 1.07389 
2.42643 0.0124911 0.48923 1.94435 0.105978 0.671234 1.62842 0.131514 0.6596 
1.8835 0.0905407 0.482852 2.50317 -0.0510128 0.459833 2.76056 -0.103291 0.329798 
1.22152 -0.0477681 0.335388 1.32194 -0.12103 0.203177 0.983176 -0.123284 0.281014 
0.623723 -0.0436223 0.405163 -0.0519777 0.396929 0.819229 0.267622 0.134907 0.588314 
1.64578 0.0601728 0.441294 1.35333 0.0200863 0.420824 1.29824 0.089337 0.568876 
0.963117 0.0407941 0.50274 -1.37135 0.927169 1.17461 -1.84516 1.05611 0.825598 
-1.7979 1.06217 0.934536 0.85823 0.15593 0.71881 1.03125 0.168502 0.761463 
1.913 0.0569971 0.335828 0.718578 0.371856 -1.18163 0.856694 0.162972 -1.32596 
0.568695 0.845825 -1.42122 0.263537 0.356188 1.07099 0.398422 0.284738 0.914056 
-0.00545338 0.454914 1.1312 -0.609726 0.978793 1.2637 -0.536886 0.603553 1.2044 
-0.569171 0.703709 1.27083 0.660244 -0.281556 -0.444609 0.813503 -0.621572 -0.630849 
0.8106 -0.380848 -0.726411 -0.324091 -0.14345 1.26387 -0.306262 0.0690255 1.17748 
-0.377122 0.100916 1.26164 0.114033 -0.13791 0.592856 0.2684 -0.211535 0.343371 
0.140098 0.0404272 0.464142 -0.209066 0.00541994 1.05725 -0.249355 0.254907 1.03517 
-0.450074 0.101186 1.31613 -0.394974 -0.175394 1.3069 -0.422688 0.111444 1.30781 
-0.109932 -0.0769089 0.936156 -0.14954 -0.228233 1.05156 0.150193 0.902687 -0.206232 
0.112979 1.03343 -0.51491 -0.04276 1.17009 -0.411772 0.22128 -0.455284 0.575898 
0.0988418 -0.296218 0.696797 0.103139 -0.460549 0.77274 1.42993 -3.40242 -0.601034 
1.36293 -3.35077 -0.590734 1.49787 -3.5202 -0.876097 -0.014537 -0.126435 0.805101 
0.333828 -0.617655 0.48184 0.312871 -0.42787 0.38674 0.37801 -0.816043 0.561439 
0.459936 -0.817842 0.400265 -0.0144321 0.246686 0.656981 -0.142772 0.332213 0.841585 
-0.0829659 0.0943833 0.829052 1.428 -3.34656 -0.493501 1.46611 -3.31922 -0.528277 
1.37881 -3.21687 -0.274767 1.60425 -3.02256 -1.29653 1.62997 -3.26319 -1.23654 
1.70943 -3.1186 -1.65417 0.399883 -0.348319 0.155961 -0.110529 0.845777 0.60219 
-0.278857 1.03956 0.817873 -0.269626 0.803554 0.893452 -0.421013 0.378828 1.24356 
-0.578645 0.779513 1.29507 -0.506556 0.362122 1.25977 -0.463851 0.726561 1.20897 
-0.385427 0.63844 1.12394 -0.2591 0.522869 0.966506 -0.463898 0.139349 1.27734 
-0.509223 0.442154 1.31179 -0.0232923 1.3455 -0.886482 0.223361 0.944603 -0.652043 
0.603371 0.271714 -0.643075 0.420014 0.619254 -0.58418 0.443128 0.440052 -0.357261 
-0.234161 2.08058 -1.55058 -0.197872 1.78887 -1.2733 -0.373696 1.92163 -1.24266 
-0.339367 1.51557 -0.667787 -0.550087 1.95563 -1.12402 -0.737567 1.94889 -0.975116 
0.658735 -0.790203 -0.130101 0.746999 -1.02933 -0.141498 0.779109 -0.818902 -0.428478 
-0.32097 1.32263 -0.0976109 -0.602237 1.55114 -0.410897 -0.437112 1.37028 -0.0302879 
0.128938 0.287163 0.383964 0.118021 0.856789 0.0683288 -0.0350882 1.04066 0.238927 
0.0253621 0.847034 0.329747 0.594826 -1.0556 0.352163 0.549162 -0.808483 0.177805 
-0.486925 1.06029 1.14261 -0.522275 0.822033 1.25675 0.308084 1.57352 -1.71227 
2.26614 -0.129669 0.412539 1.69487 0.0709002 0.610043 1.98405 -0.0663164 0.443249 
1.12073 -0.0118208 -2.03554 1.35047 -0.718752 -2.03507 1.29776 -0.55012 -2.0849 
1.05316 0.297725 0.709874 1.00481 0.30279 0.604338 1.56524 0.0732053 0.508461 
2.132 -0.175657 0.306027 2.43741 -0.130679 0.413671 2.70862 -0.265596 0.256395 
1.20765 -0.318572 -2.09908 1.13482 -0.182139 -2.09774 0.973768 0.352848 -2.07269 
1.15937 0.265605 0.781324 0.672845 0.453169 0.892074 2.41018 -0.0682046 0.475485 
2.01759 0.0151377 0.595707 0.366107 0.606145 0.705961 0.826565 0.368554 0.537345 
-0.270316 0.882067 1.02577 0.057314 0.751814 0.858654 0.190351 0.663342 0.969541 
1.48764 0.16088 0.740961 2.06311 0.0517403 0.639347 -0.219312 0.908699 0.799481 
-0.726618 1.15348 0.914082 -0.719627 1.18188 0.796742 -0.814132 1.255 0.677774 
-1.24492 1.44976 0.745752 -2.04116 1.72163 0.506596 -1.99894 1.78206 0.393169 
-1.67221 1.62688 0.636496 -1.40618 1.46989 0.834294 -0.530921 0.951321 1.1777 
-0.716604 1.10095 1.04487 0.889391 -2.70165 -0.315274 1.05361 -2.92794 -0.447281 
0.919143 -2.71295 -0.291536 0.856683 0.350449 1.0458 1.46435 0.181893 0.810516 
1.46066 0.189629 0.856709 -1.10948 1.2996 0.983399 -1.4706 1.42986 0.929654 
-2.75467 1.84786 0.0330099 -2.34535 1.73858 0.385258 -2.56962 1.70577 0.290365 
-2.2415 1.52768 0.618422 -2.6167 1.61033 0.323059 -2.34198 1.42358 0.592592 
-2.77769 1.55992 0.225545 0.810887 -2.59409 -0.526055 0.769376 -2.48469 -0.590185 
0.956948 -2.62108 -0.81819 -3.11155 1.68168 -0.102752 -2.83072 1.47745 0.194232 
-1.90424 1.58971 0.711843 -1.72641 1.34589 0.996641 -1.60129 1.39722 0.981076 
-1.19431 1.14713 1.25197 1.2162 -3.16951 -0.669889 1.1865 -3.11783 -0.521964 
-0.642132 0.926654 1.30971 1.48611 -2.18275 -2.05366 1.59631 -2.81553 -1.95624 
1.41959 -2.25028 -1.92743 -1.63737 1.8803 -0.619531 -1.05409 1.3384 0.249036 
-0.771056 1.312 0.613944 -2.25041 2.38192 -1.10075 -1.84847 1.84592 -0.577462 
-2.03336 1.74815 -0.472852 -1.48362 1.48125 -0.0967112 -1.30815 2.07442 -0.886028 
-0.911918 1.68885 -0.480157 -0.978697 1.87021 -0.732136 -1.71245 1.34695 0.0774045 
-1.29546 1.15076 0.525686 -1.20478 1.19221 0.485069 -0.898556 1.9301 -0.853841 
-1.24712 2.52639 -1.37801 -0.839097 2.63118 -1.63999 -0.140867 -0.925703 0.577619 
-0.207247 -0.808662 0.735417 -0.213809 -0.0657771 0.687242 0.0106959 -0.1929 0.0302466 
-0.100524 0.737016 0.129416 -0.0296684 0.522377 -0.0405923 0.340461 -1.78943 -0.282457 
0.231538 -1.33641 -0.201267 0.327362 -1.46469 -0.375777 -0.409469 2.62643 -1.88403 
-1.7124 2.43666 -1.18775 -0.470056 1.25734 1.0357 -0.424178 1.34415 0.878659 
-0.518078 1.36689 1.04137 0.187028 -0.843016 -0.242075 0.122357 -0.924443 -0.0664304 
-2.75109 1.36843 0.0362747 -2.80378 1.37036 0.118515 -2.31756 1.19783 0.435749 
-1.78379 1.10044 0.997405 -1.8162 1.19293 1.0029 -1.26296 0.962855 1.35114 
0.576197 -2.38126 -0.352656 0.404018 -2.34905 -0.055301 0.382904 -2.2515 -0.117883 
-2.83587 1.41428 0.163998 -3.15026 1.52057 -0.159964 -3.10418 1.59537 -0.366481 
-2.68314 1.40437 -0.0572162 -2.35594 1.26299 0.55698 -2.23762 1.54278 -0.242574 
-2.21484 1.68233 -0.407155 -2.69343 2.18738 -0.934901 -1.93744 1.27253 0.172984 
-2.4733 1.52535 -0.234021 -3.03118 1.92137 -0.713397 -2.58669 1.45021 -0.13356 
-0.0788396 -0.851677 0.409789 -0.04752 -1.5021 0.461253 -2.09102 1.17727 0.367776 
0.0814091 -1.84088 0.280387 0.0792654 -1.49535 0.183877 0.211128 -1.98884 0.0716196 
-0.813925 0.935135 1.21374 -0.888905 1.00279 1.09135 -1.11579 0.9643 1.00425 
0.812782 -2.08068 -1.05134 0.873772 -2.20712 -1.04274 0.797453 -2.23924 -0.890535 
-0.0256735 -0.7994 0.265644 0.0446751 -0.897819 0.11357 -1.29024 0.919035 1.08987 
-1.60986 1.00948 0.797459 -1.78176 1.03883 0.769498 -0.594401 1.43031 -0.0575275 
-0.40951 1.34175 0.310832 0.961543 -2.26943 -1.13886 0.902369 -2.0479 -1.20684 
0.0568909 2.35932 -2.03738 0.481548 1.38257 -1.81027 -0.778117 1.42722 0.067067 
-0.806969 1.51472 -0.173586 0.811584 -1.4613 0.323625 0.755601 -1.24721 0.133282 
0.713051 -1.28331 0.352203 0.655292 -1.27221 0.519717 1.18416 -1.46663 -1.06839 
1.10297 -1.0276 -1.10307 1.05343 -1.24435 -0.865213 0.904853 -1.68869 0.428063 
0.91674 -1.61427 0.144653 0.995165 -1.89654 0.48736 0.916321 -1.77903 0.675916 
1.29827 -0.869003 -1.66854 1.26528 -0.590892 -1.82002 1.12254 -0.263337 -1.68161 
1.13815 -2.25192 0.525707 1.06839 -2.07175 0.518868 1.0994 -2.18501 0.796976 
1.34671 -2.68718 -0.311571 1.27505 -2.4982 -0.144142 1.28057 -2.62095 0.122072 
1.2129 -2.50342 0.71155 1.24489 -2.57774 0.440598 1.1999 -2.43062 0.502695 
1.19569 -2.34906 0.185364 1.05307 -1.95608 0.191836 1.41201 -3.04844 -0.291944 
1.39994 -2.90174 -0.35708 1.34229 -2.86854 0.0143636 1.246 -2.09645 -0.689437 
1.12574 -1.99496 -0.224509 1.21873 -2.26499 -0.249339 0.954142 0.461009 -2.00647 
0.826364 0.778906 -1.96637 1.11951 -0.0608115 -1.92279 0.974334 0.010293 -1.50962 
0.841855 0.50111 -1.70328 -0.11182 -0.0100369 0.345844 0.672314 1.08442 -1.89695 
0.477505 1.72309 -2.07016 0.900388 0.614078 -2.0544 1.55034 -1.45567 -2.20628 
1.44504 -1.04416 -2.14902 1.62922 -1.72827 -2.18214 1.2836 -2.70507 0.29881 
1.61153 -1.76734 -2.24289 1.36406 -0.914425 -2.16034 1.70148 -2.22831 -2.10324 
1.62298 -1.80306 -2.0787 1.45534 -3.19684 -0.459841 1.55322 -3.34591 -0.85811 
0.768816 0.953023 -2.07476 1.30097 -2.81619 0.269602 1.46755 -2.84782 -0.823567 
1.02793 -1.78387 -0.10098 1.12571 -0.281426 -2.0929 1.31662 -2.92306 0.16503 
1.27173 -2.77235 0.435131 0.946543 -1.51927 -0.199015 1.32282 -3.07525 -0.0468112 
1.32505 -3.00632 0.0586333 1.27696 -2.94877 0.149898 1.59591 0.162774 0.819221 
1.34403 -3.25172 -0.367062 1.30095 -3.10921 -0.136787 1.2699 -3.10973 -0.206974 
1.22281 -2.99309 -0.0748284 1.37451 -3.05864 -0.109106 1.1645 -3.00278 -0.274439 
1.2505 -3.16338 -0.395938 1.25255 -3.12197 -0.284565 1.08186 -2.8918 -0.275885 
1.00954 -2.7965 -0.270711 1.11861 -2.98546 -0.375196 1.09837 -2.87581 -0.202525 
1.39641 -1.35906 -2.14956 1.64861 -2.0558 -2.25352 1.63188 -2.21442 -2.21764 
0.891032 -2.59789 -0.181169 0.910922 -2.66517 -0.23673 1.76954 -3.17091 -1.87118 
1.771 -2.89447 -2.01038 1.78334 -3.20739 -1.96284 1.75812 -3.23115 -1.95824 
1.74281 -2.81134 -2.16305 1.2423 -3.18611 -0.498522 0.779977 -2.5005 -0.162736 
0.636791 -2.30572 -0.0434433 0.663673 -2.3777 -0.0838811 0.799594 -2.60707 -0.266238 
0.73583 -2.49795 -0.169882 0.58653 -2.32279 -0.0302496 0.521422 -2.30617 0.0154093 
0.436928 -2.19811 0.109604 0.810828 -2.644 -0.336999 0.635662 -2.44666 -0.12085 
0.196925 -2.09693 0.359044 0.311099 -2.1907 0.228725 0.305265 -2.12979 0.242238 
0.366288 -2.11481 0.182533 -0.0658282 -2.01226 0.671201 0.0669868 -2.1164 0.506639 
0.0710652 -2.06421 0.504463 0.0690528 -2.00816 0.506306 -0.190024 -1.87021 0.82465 
-0.168474 -1.91285 0.796466 0.369807 -2.33394 0.116185 0.353634 -2.27282 0.165116 
0.196912 -2.21682 0.342039 1.6637 -2.53602 -1.83393 1.52634 -2.39455 -1.47606 
1.56053 -2.71966 -1.35863 0.452445 -2.30167 0.0694981 1.04279 -2.52498 -1.08366 
1.13515 -2.79698 -1.03448 0.598738 -2.47606 -0.196854 0.38691 -2.36662 0.0422704 
1.75881 -2.47624 -2.22086 0.282992 0.497132 1.26313 -0.0459644 -2.07355 0.625636 
0.0310786 -2.13673 0.542858 -0.109689 -1.99999 0.717958 0.916063 0.193756 -2.03142 
1.14265 -0.527506 -2.07245 1.14659 -0.788659 -2.02603 0.0352697 -1.99491 0.426238 
1.12931 -0.982248 -1.96529 0.963121 -0.444464 -1.93319 1.13866 -1.21066 -1.91429 
1.30858 -1.53966 -2.01971 0.349146 -2.0552 -0.177131 0.471415 -2.03572 -0.43988 
1.07065 -1.23369 -1.82643 1.23368 -1.68817 -1.87493 1.21232 -3.13018 -0.803998 
1.38643 -3.37393 -0.968669 1.00917 -1.45452 -1.67107 1.04065 -1.36024 -1.74601 
1.15873 -1.80715 -1.72432 1.04708 -2.28164 -1.27995 1.02127 -2.87301 -0.626892 
1.19392 -3.01402 -0.938971 0.920707 -0.866184 -1.77683 1.55707 -2.18414 -2.14406 
1.05588 -1.90544 -1.52641 0.944665 -1.6652 -1.49079 0.976594 -1.55584 -1.58549 
0.896162 -1.24815 -1.6149 0.899344 -1.85628 -1.32663 0.914195 -1.75143 -1.4058 
0.982825 -1.98729 -1.36721 0.716203 -2.35077 -0.643312 0.859468 -1.53829 -1.4468 
0.849249 -1.86807 -1.25478 0.687703 -2.20504 -0.734321 0.586016 -2.10863 -0.625327 
0.673053 -2.06065 -0.833897 0.767406 -1.94375 -1.09437 0.809108 -1.91497 -1.17319 
0.190042 -2.25052 0.269008 0.726875 -1.83889 -1.11915 0.714404 -1.95498 -1.00006 
0.6446 -1.92632 -0.884397 0.566711 -1.83965 -0.764425 0.607189 -1.77666 -0.900532 
1.34346 -2.7497 -1.52444 1.19454 -2.297 -1.53444 1.28232 -2.30059 -1.68346 
0.795949 -1.7181 -1.28471 -0.00992349 -2.07223 0.547928 1.71079 -3.50805 -1.61552 
1.70014 -3.26366 -1.85983 -0.27016 -1.33652 0.91157 -0.220527 -1.60289 0.835617 
-0.21524 -1.7723 0.847198 -0.142751 -1.83611 0.72625 -0.25768 -0.569224 0.862526 
-0.211785 -1.31029 0.788887 -0.286496 -0.579321 0.94677 -0.300971 0.393028 1.01014 
-0.301157 -0.926608 0.974908 -0.252147 0.948813 0.690949 -0.29604 1.16865 0.888601 
-0.338805 1.56017 1.11703 -0.38835 2.65141 1.18623 -0.415548 3.30618 1.11494 
-0.410128 3.50055 0.914435 -0.335366 2.27776 0.812239 -0.249396 1.33426 0.581198 
-0.464173 4.00079 1.45511 -0.433333 4.22031 0.819789 -0.370482 3.30651 0.635943 
-0.361007 1.75667 1.30616 1.34496 -0.758504 -1.93979 -0.195682 0.998744 0.423183 
-0.159186 0.955417 0.286497 0.376531 -1.39579 -0.511942 0.267218 -0.996777 -0.385787 
1.311 -2.14812 -1.8 0.405237 -1.27073 -0.620952 0.482035 -1.68792 -0.643064 
0.165177 -0.382916 -0.316383 0.531901 -1.93673 -0.62812 -0.30225 2.74816 0.38953 
-0.238016 2.38612 0.173447 -0.205879 1.77723 0.232913 -0.289974 2.22246 0.520251 
0.0346424 0.429307 -0.200633 -0.110968 1.45056 -0.0422521 -0.228864 2.63795 0.0486949 
1.08981 -2.19192 -1.41444 0.112274 0.241237 -0.35427 1.32152 0.207565 0.894553 