# vtk DataFile Version 3.0
vtk output
ASCII
DATASET POLYDATA
POINTS 853 float
14.5743 -0.901819 30.3807 14.5228 -1.89326 30.1936 14.5077 -2.88794 30.0207 
14.5138 -3.89828 29.7861 14.5132 -4.97535 29.4627 14.5243 -6.05262 28.9867 
14.5065 -7.06022 28.2737 14.4582 -8.03876 27.2841 14.4309 -8.94408 26.1732 
14.4227 -9.76003 25.151 14.433 -10.5909 24.1943 14.4607 -11.4272 23.3118 
14.4949 -12.2753 22.4141 14.4887 -13.1276 21.4151 14.439 -13.9178 20.3692 
14.4202 -14.6297 19.1988 14.3198 -15.1668 17.9919 14.1433 -15.5359 16.7932 
13.9251 -15.7645 15.5708 13.5704 -15.9498 14.3716 13.0804 -16.0942 13.2665 
12.5478 -16.0154 12.2733 12.0834 -15.5232 11.5443 11.7147 -14.5119 11.1791 
11.349 -13.0054 11.126 11.0059 -11.4225 11.3457 10.8593 -10.1356 11.8025 
11.0129 -9.18764 12.4953 11.3406 -8.48518 13.3927 11.4745 -7.86041 14.3813 
11.3041 -7.26074 15.348 11.1361 -6.82784 16.254 11.1439 -6.56799 17.0961 
11.2343 -6.32331 17.9149 11.301 -5.97221 18.7256 11.3133 -5.4408 19.4916 
11.3257 -4.79077 20.2371 11.3829 -4.02899 21.0353 11.5102 -3.27472 21.9175 
11.6572 -2.54947 22.8788 11.8379 -1.76137 23.8202 12.1049 -0.970578 24.6234 
12.4247 -0.176341 25.2592 12.7207 0.594897 25.7719 12.9772 1.34918 26.2784 
13.201 2.21915 26.7503 13.3769 3.18834 27.1933 13.5417 4.21005 27.6683 
13.766 5.35218 28.181 14.1012 6.70714 28.7387 14.526 8.08283 29.3336 
15.001 9.00262 29.9646 15.4269 9.15729 30.5339 15.6588 8.48339 30.9317 
15.6782 6.99451 31.1275 15.5243 5.06007 31.1438 15.287 3.39667 31.0462 
15.0446 2.1171 30.8668 14.8186 1.04103 30.716 14.6563 0.0665039 30.58 
14.5444 -0.503279 29.9679 14.4933 -1.14012 29.9448 14.451 -1.95208 29.57 
14.4575 -2.51617 29.588 14.4292 -3.37375 29.2801 14.4279 -4.05526 29.1869 
14.3663 -4.79175 28.7179 14.3988 -5.4188 28.5947 14.3515 -6.2236 27.9784 
14.3629 -6.91763 27.5187 14.2588 -7.48374 26.7217 14.246 -8.05041 26.0978 
14.2172 -8.74565 25.2073 14.2551 -9.33638 24.6211 14.1798 -9.80916 23.869 
14.2354 -10.4031 23.4148 14.1977 -11.0266 22.6332 14.1481 -11.5803 21.9603 
14.1044 -12.1261 21.1658 14.0807 -12.6751 20.6605 13.9942 -13.2802 19.7506 
13.8495 -13.6729 19.0392 13.6997 -14.0286 18.1067 13.5731 -14.3741 17.4327 
13.3675 -14.6641 16.4623 13.1563 -14.7181 15.7987 13.0087 -14.9692 14.9319 
12.7627 -15.026 14.1463 12.4882 -15.201 13.2744 12.2162 -14.9331 12.7907 
11.9794 -14.8757 12.209 11.74 -14.3831 11.8932 11.4913 -13.5372 11.7665 
11.2623 -12.6541 11.7913 11.038 -11.8287 11.8154 10.8814 -11.0288 12.0464 
10.7955 -10.3362 12.6097 10.7942 -9.8521 13.0648 10.8524 -9.43285 13.7495 
10.9949 -9.03041 14.409 11.1062 -8.63555 15.2133 11.2197 -8.42167 15.8543 
11.3049 -8.14071 16.598 11.4146 -7.90121 17.1093 11.5395 -7.53178 17.8994 
11.6645 -7.44958 18.4294 11.7516 -6.96742 19.2911 11.7368 -6.6415 19.7704 
11.7658 -6.04092 20.4928 11.7581 -5.69518 20.9765 11.8363 -4.94334 21.7748 
11.8656 -4.43963 22.2436 11.9936 -3.77318 23.0145 12.0438 -3.31876 23.5589 
12.161 -2.50352 24.3762 12.3145 -1.99895 24.8374 12.5106 -1.23566 25.4408 
12.68 -0.668022 25.8145 12.7713 0.000205029 26.1137 13.005 0.548035 26.4529 
13.1883 1.3232 26.8094 13.3956 1.79373 27.1721 13.4973 2.58717 27.4445 
13.6983 3.28472 27.7749 13.8564 4.32109 28.1283 14.0755 5.13433 28.4965 
14.2743 6.1906 28.8715 14.4808 6.97422 29.1976 14.7642 7.93623 29.6038 
14.9745 8.12859 29.9258 15.1947 8.36042 30.2299 15.3483 8.06262 30.5021 
15.3793 7.04556 30.6826 15.3802 5.97821 30.8447 15.2332 4.62593 30.7026 
15.1785 3.73367 30.7414 14.981 2.55699 30.536 14.8513 1.79064 30.532 
14.7017 0.94371 30.216 14.6386 0.370888 30.2347 15.0446 7.01419 30.1065 
14.7997 7.10106 29.6964 15.0424 5.50284 30.3213 14.4867 5.61966 29.2235 
14.7693 5.92974 29.7579 14.857 3.48631 30.1627 14.1663 3.8128 28.6775 
14.5972 4.31793 29.5325 14.6248 1.79087 29.874 13.8538 2.19629 28.1129 
14.2925 -1.09767 29.1142 14.4256 0.320433 29.5114 13.2584 -0.474233 26.9431 
13.5501 0.809709 27.5362 11.3747 -12.8403 12.4502 12.7357 -4.48588 24.3452 
12.8306 -3.17275 25.383 14.3743 2.5857 29.1534 13.1237 -1.60743 26.4142 
11.7155 -13.8298 12.6088 11.0645 -11.7377 12.537 14.0439 -5.07924 27.3869 
14.17 -3.83009 28.1915 14.1903 -2.51839 28.5957 13.7301 -9.39245 22.9575 
13.4727 -11.2997 20.5027 11.5879 -4.98793 21.0577 12.5795 -5.69372 23.1018 
11.5369 -6.81992 18.6356 11.9083 -2.61156 23.706 11.9888 -13.8594 13.6965 
11.0181 -11.008 13.5748 13.9856 -6.31756 26.479 13.8031 -8.41871 24.058 
12.3783 -7.96999 20.3626 12.14 -8.73836 18.7713 13.9472 -7.20644 25.6599 
12.4364 -3.38964 24.4288 12.3778 -6.8072 21.7135 13.638 -10.2476 21.8743 
12.8943 -12.8134 17.7549 14.1407 1.1051 28.7279 12.17 -5.90083 21.9381 
12.103 -8.0338 19.3558 11.514 -12.722 13.2717 12.2332 -13.6011 14.8979 
11.1255 -10.5548 14.7573 13.2473 -12.1054 19.2094 11.8443 -9.39213 17.3039 
12.5328 -13.3587 16.3604 11.4808 -10.0168 16.0615 13.258 -4.32404 25.6578 
13.9302 -0.174447 28.3305 11.5702 -12.2914 14.4276 12.464 -4.87839 23.4473 
13.2381 -5.72188 24.7931 11.8885 -8.84671 17.9935 12.3264 -7.2656 20.991 
13.0627 -7.06547 23.2667 12.8444 -9.36738 20.3996 13.5992 -3.79508 26.6926 
12.5657 -10.3393 18.8341 13.0301 -8.65485 21.7026 13.8021 -3.1048 27.4573 
13.6548 -2.3025 27.4188 13.2703 -12.8871 18.5164 12.6777 -11.4917 18.3307 
13.5586 -12.0758 19.9942 12.9941 -10.917 19.7198 12.5856 -13.9561 15.5739 
12.0678 -12.6772 15.7386 11.9647 -11.6448 16.5434 12.9083 -13.5705 17.0403 
12.4077 -12.4005 17.108 12.1539 -10.9187 17.329 11.1394 -9.77561 15.249 
11.5048 -11.0489 15.6664 11.5598 -9.36429 16.583 13.1227 -8.02012 22.5896 
13.7447 -7.49912 24.6781 13.4363 -6.52964 24.5784 12.2809 -10.2745 17.9991 
13.5508 -5.32307 25.8816 13.4205 -10.5258 21.0103 13.0947 -9.37253 21.1807 
13.1717 -2.65123 26.2289 13.7702 -1.41216 27.8518 11.6462 -11.9777 15.2377 
12.7149 -9.77203 19.7668 14.0918 -14.4327 18.6023 13.8068 -13.9463 18.5264 
13.9666 -14.521 18.1037 11.6535 -5.32418 20.9869 11.9446 -5.8276 21.4038 
11.8265 -5.39386 21.4264 13.6578 -14.2113 17.8029 13.9528 -14.8128 17.6633 
13.8571 -14.9776 17.1567 14.2232 -15.3664 17.3955 14.1498 -14.186 19.119 
14.3917 -14.9274 18.593 11.6952 -4.93424 21.3916 11.6098 -4.52675 21.4305 
11.4788 -4.57979 20.995 14.0506 -13.0045 20.2199 14.2374 -13.642 20.0423 
14.264 -13.284 20.5725 14.4518 -13.5271 20.9093 14.3025 -12.9578 21.0051 
13.3451 -13.5347 17.9392 13.243 -13.6718 17.6147 14.2043 -13.9458 19.554 
13.9136 -13.4612 19.402 13.6517 -12.7646 19.5029 13.5675 -12.9347 19.1862 
14.4323 -14.2892 19.7954 11.6185 -7.4948 18.2064 11.8325 -8.13344 18.3222 
11.8895 -8.02674 18.6049 13.4808 -13.4646 18.3305 13.1041 -12.8529 18.1607 
13.1526 -15.5364 14.221 12.9641 -15.592 13.7483 13.341 -16.0352 13.8057 
11.5919 -7.11132 18.5164 11.3952 -6.59663 18.3263 11.4555 -6.9533 18.1763 
11.6367 -13.3007 12.9833 11.4389 -12.7969 12.8101 11.526 -13.262 12.54 
12.7545 -15.6372 13.2603 12.6027 -15.0888 13.6795 12.8908 -14.9902 14.5493 
13.3053 -15.4805 14.6711 12.5521 -15.6191 12.8347 12.8077 -16.0973 12.7583 
13.6645 -15.2401 16.0784 14.0501 -15.6681 16.1868 13.7593 -15.1307 16.5915 
13.4847 -14.5602 16.9425 12.8962 -13.2451 17.3824 13.2015 -13.935 17.2212 
13.4462 -15.3952 15.1756 13.4799 -15.1919 15.6791 13.1383 -14.9039 15.3936 
13.2673 -14.715 16.0888 11.1265 -10.0993 15.0317 11.0255 -9.42335 14.8726 
10.9877 -9.69633 14.577 12.8506 -14.3413 15.682 12.7682 -14.4355 15.2602 
13.7608 -15.8558 14.9596 12.1381 -5.28421 22.3122 12.1764 -5.04346 22.6152 
11.8505 -4.73443 21.9796 12.3338 -13.3908 15.658 12.5522 -13.6868 15.9276 
12.2694 -12.9711 16.0633 13.5124 -11.6953 20.269 13.8113 -12.3623 20.3079 
13.8148 -12.033 20.6299 13.4535 -7.28885 24.0375 13.5568 -6.99057 24.5308 
13.2271 -6.73169 23.8887 14.4778 -11.848 22.8736 14.3567 -11.2785 22.9573 
14.3588 -11.6462 22.5632 14.2174 -9.55614 24.2478 14.0977 -8.93855 24.455 
14.0159 -9.16814 23.9621 14.3494 -10.8795 23.3796 14.2028 -10.6366 23.0577 
14.339 -12.3268 21.7827 14.5058 -12.7053 21.9276 14.3485 -11.9691 22.203 
14.3425 -10.5325 23.7508 14.4451 -11.0129 23.742 12.3704 -7.04748 21.3882 
12.0549 -6.45006 21.0626 12.0237 -6.64193 20.7046 14.3459 -9.54904 24.8694 
14.3432 -9.89136 24.4585 14.427 -10.1647 24.6735 14.3627 -2.15643 29.1815 
14.3848 -1.62702 29.3484 14.2302 -1.80282 28.8185 14.3132 -10.1543 24.0313 
14.3442 -9.23923 25.2541 14.2291 -9.04083 24.8848 14.4234 -9.35678 25.649 
14.3489 -8.88518 25.7001 13.9883 -9.55922 23.5199 14.0449 -10.0057 23.2265 
14.2003 -10.1114 23.6325 14.3796 -2.56134 29.2108 14.3353 -3.02744 28.9476 
14.44 -2.9013 29.4205 13.9105 -3.90215 27.4228 13.9743 -3.41233 27.7678 
13.7139 -3.43492 27.1089 14.0252 -8.51526 24.6883 13.3721 -9.0246 22.3293 
13.3498 -9.44403 21.8659 13.6609 -9.83 22.3537 14.1841 -11.3386 22.2842 
13.819 -11.7414 20.8701 14.12 -12.4226 20.9529 13.9018 -10.9243 21.9176 
13.9467 -10.6579 22.2976 13.9635 -10.2371 22.7644 14.2984 -12.567 21.3257 
14.1272 -11.8971 21.5382 11.7652 -5.85092 20.7764 12.028 -6.2079 21.2945 
12.5856 -6.47167 22.5543 12.3037 -6.40429 21.8914 12.7141 -7.00687 22.4453 
11.4508 -4.86979 20.7 11.5459 -5.30531 20.6188 11.53 -5.44823 20.3161 
11.7406 -6.32391 20.1219 11.524 -5.72656 19.9768 11.5075 -6.05024 19.5999 
14.0231 -7.8116 25.3975 14.082 -7.61458 25.8484 13.8362 -7.30339 25.169 
12.029 -7.24667 20.0419 11.7516 -6.84194 19.4989 12.0089 -7.39855 19.7296 
13.746 -8.86538 23.4831 12.7262 -7.67577 21.7815 12.6835 -7.9402 21.3712 
13.0713 -8.33075 22.1342 14.3622 -8.48899 26.206 14.2202 -8.37637 25.6302 
13.5612 -10.4379 21.4781 13.8249 -11.1009 21.5452 11.6033 -4.19952 21.6522 
12.0431 -15.2059 11.9076 11.8371 -14.6047 12.0651 11.886 -14.8967 11.7012 
11.9517 -2.93889 23.5963 12.2268 -3.39029 23.9562 12.1135 -2.94822 24.0023 
11.6215 -13.9982 11.8402 11.5808 -13.9615 11.4518 11.7362 -14.4811 11.5503 
11.8935 -15.085 11.3179 12.2347 -15.4206 12.1955 12.3037 -15.8294 11.8597 
12.0188 -2.5278 24.0294 11.9888 -2.15025 24.1173 11.8478 -2.25114 23.7037 
11.6982 -14.0964 12.1957 11.5728 -13.6407 12.1806 12.3632 -15.4233 12.5668 
[...]
POINT_DATA 853
VECTORS velocity double
1.00559 -2.98421 -0.367254 1.1688 -3.16242 -0.352346 1.26299 -3.17827 -0.189313 
1.30289 -3.0475 0.0771299 1.28878 -2.7852 0.410466 1.21328 -2.44166 0.679488 
1.06986 -2.03789 0.751031 0.836081 -1.54346 0.669566 0.535722 -1.03588 0.633507 
0.230873 -0.623114 0.759996 -0.0587894 -0.323344 1.0072 -0.283425 -0.16699 1.25988 
-0.412294 -0.139141 1.40214 -0.413595 -0.222649 1.32036 -0.271842 -0.378663 0.991496 
0.0126832 -0.491862 0.534025 0.419012 -0.434961 0.222065 0.939224 -0.231221 0.152332 
1.5444 0.00501665 0.249985 2.15491 0.109482 0.364078 2.61783 0.0170196 0.396328 
2.76475 -0.154109 0.363803 2.47034 -0.160833 0.366042 1.60658 0.205793 0.499254 
0.0997762 1.00755 0.708894 -1.40215 1.76899 0.677955 -2.46863 2.0607 0.386115 
-3.14081 2.00728 0.12867 -3.42792 1.84944 -0.0068593 -3.4575 1.86219 -0.178065 
-3.39276 2.19224 -0.496349 -3.15572 2.62167 -0.828773 -2.74445 2.91263 -1.04972 
-2.25547 3.07908 -1.21467 -1.75847 3.18102 -1.41407 -1.29113 3.26266 -1.71433 
-0.805771 3.23389 -2.04553 -0.278106 2.99521 -2.34738 0.238479 2.41137 -2.50697 
0.651174 1.54054 -2.53356 0.875489 0.615122 -2.47109 0.94307 -0.225513 -2.32701 
0.923126 -0.888713 -2.12715 0.877832 -1.36291 -1.9035 0.849692 -1.75083 -1.67548 
0.800794 -1.9998 -1.44589 0.730078 -2.10901 -1.22882 0.623329 -2.03445 -0.994423 
0.428496 -1.54323 -0.696468 0.110131 -0.185617 -0.31022 -0.257265 2.09475 0.181289 
-0.519295 4.05163 0.839291 -0.637458 4.64417 1.50957 -0.630419 3.65113 1.83017 
-0.498856 1.08779 1.59002 -0.306867 -1.27125 1.12422 -0.0471696 -2.07389 0.692912 
0.25503 -2.31035 0.289348 0.543111 -2.50222 -0.033282 0.789857 -2.72724 -0.2484 
1.03891 -3.13331 -0.505041 1.1466 -3.2462 -0.5249 1.3125 -3.44778 -0.608977 
1.34008 -3.40135 -0.490137 1.40143 -3.32271 -0.389086 1.38491 -3.12691 -0.168715 
1.37323 -2.87426 -0.0983274 1.3006 -2.61125 0.144368 1.1888 -2.19576 0.200384 
1.04684 -1.839 0.302949 0.87883 -1.40403 0.225319 0.687082 -1.03774 0.289701 
0.40503 -0.563886 0.435098 0.184553 -0.294429 0.632414 -0.0455268 0.0348969 0.831792 
-0.211147 0.130164 1.0436 -0.407254 0.313798 1.26187 -0.518832 0.387049 1.37782 
-0.567139 0.412084 1.3697 -0.519599 0.269019 1.27576 -0.380304 0.1306 1.00416 
-0.211693 0.0455646 0.774211 0.0572851 0.0126192 0.562152 0.347072 -0.0147486 0.452361 
0.774479 0.0638281 0.463069 1.03739 0.155402 0.563995 1.49224 0.203807 0.628393 
1.79225 0.224562 0.701288 2.13644 0.150851 0.667545 2.00409 0.175247 0.708026 
1.98369 0.13924 0.642867 1.52302 0.314196 0.699614 0.662053 0.719975 0.83861 
-0.24079 1.16882 0.942745 -1.02964 1.54976 0.918752 -1.72108 1.79567 0.826344 
-2.22796 1.81539 0.761321 -2.52764 1.75857 0.672205 -2.66906 1.62327 0.622893 
-2.73893 1.5554 0.508266 -2.66074 1.57931 0.343463 -2.47704 1.65375 0.230339 
-2.24103 1.81977 0.0520461 -2.07186 1.96925 -0.0917867 -1.76839 2.18129 -0.301653 
-1.48368 2.18574 -0.308382 -1.1047 2.27046 -0.544352 -0.879969 2.27612 -0.722228 
-0.493466 2.1947 -1.04738 -0.213572 2.03047 -1.23 0.276003 1.64669 -1.62006 
0.548296 1.36314 -1.86636 0.93495 0.711024 -2.12528 1.13827 0.221611 -2.25275 
1.30973 -0.515662 -2.36292 1.34231 -0.966296 -2.35782 1.30363 -1.49067 -2.24844 
1.23932 -1.77987 -2.11773 1.12517 -1.89173 -1.95056 1.06776 -2.11719 -1.77595 
0.967013 -2.22996 -1.55401 0.926246 -2.38927 -1.3684 0.81955 -2.37206 -1.18143 
0.711287 -2.36123 -0.959382 0.538783 -2.11905 -0.706395 0.351046 -1.70713 -0.42946 
0.111007 -0.733044 -0.150632 -0.0953339 0.356807 0.111979 -0.341669 2.07037 0.484976 
-0.44661 2.58888 0.808763 -0.537519 3.17028 1.139 -0.549284 2.75938 1.36869 
-0.456409 1.02896 1.32578 -0.359493 -0.47673 1.19883 -0.173813 -1.73589 0.874901 
-0.0429304 -2.1132 0.687325 0.235735 -2.4064 0.308472 0.417151 -2.50449 0.0928839 
0.684235 -2.7472 -0.212034 0.808578 -2.84577 -0.314896 -0.351553 0.779383 0.893108 
-0.261713 0.753958 0.552758 -0.199731 -1.16907 0.834918 0.0781387 -1.27083 0.114413 
-0.115032 -0.847234 0.51907 0.15088 -2.37876 0.385419 0.491703 -2.41005 -0.399825 
0.182828 -2.18716 0.197585 0.584185 -2.75038 -0.155396 0.855462 -2.73137 -0.925613 
1.32812 -3.56438 -0.893893 0.995197 -3.15556 -0.604548 1.3952 -2.90128 -1.8099 
1.14455 -2.87697 -1.39354 -0.033875 1.00753 1.12691 1.4198 -0.933057 -1.82736 
1.67811 -1.95313 -2.19503 0.593269 -2.74503 -0.3183 1.59226 -2.78086 -2.08847 
0.969136 0.563826 0.985326 -1.06511 1.44391 1.14728 1.43697 -2.55231 -0.738728 
1.54554 -3.27081 -0.853312 1.53888 -3.65444 -1.01907 -0.176723 0.593295 0.794342 
-0.684799 1.03584 1.32281 -0.18537 2.34206 -1.7146 0.814799 0.254092 -1.13715 
-1.55515 2.53691 -0.747881 1.06413 0.36699 -2.40186 0.925276 0.507141 1.11333 
-1.51381 1.36941 1.2745 1.15316 -1.67239 -0.475469 0.264867 0.0415247 0.295628 
-0.560922 1.6706 0.234836 -1.02942 1.70928 0.512477 0.848905 -1.00067 -0.216176 
1.47283 -0.90625 -2.20922 0.0611014 1.2361 -0.419483 -0.503305 0.934456 1.16286 
-0.287471 0.611494 0.938172 0.987947 -3.09054 -0.819647 0.296577 1.19722 -0.992127 
-0.914177 1.84602 0.178414 -0.121136 0.92595 1.32156 0.547399 0.489041 1.13429 
-1.53895 1.17389 1.27867 -0.597079 0.874907 1.1515 -1.33828 1.42914 0.756871 
0.156696 0.463669 0.955282 -1.47108 1.18299 1.05474 1.63991 -2.07596 -1.78989 
1.3133 -3.44245 -1.21007 -0.419768 0.857426 1.47492 1.0891 -0.0493055 -1.60817 
1.2241 -1.02439 -1.18068 -1.26994 1.64415 0.50834 -0.281197 1.54952 -0.150974 
0.486608 0.315507 -0.345587 -0.655499 1.53059 0.903162 1.70867 -2.88292 -1.67246 
-0.834316 1.44087 1.08152 -0.305113 1.21934 0.601265 1.699 -3.40741 -1.5202 
1.69627 -3.51801 -1.68945 -0.361769 0.541837 0.930135 -0.678837 1.11407 1.14897 
-0.621883 0.779393 1.25389 -0.738922 1.31229 1.22675 0.661236 0.358987 0.898276 
-0.14833 0.654101 1.27085 -0.644505 0.900244 1.27856 0.123539 0.353674 0.768237 
-0.357723 0.750007 1.09733 -0.853539 1.13241 1.16713 -1.88716 1.26353 0.972646 
-1.02805 0.988939 1.36542 -1.61028 1.36437 0.753831 0.046854 0.809718 0.231196 
0.632558 -0.422135 -0.166437 0.92871 -0.631879 -0.715485 -0.938134 1.35327 1.04355 
1.4271 -1.83509 -1.23973 -0.646604 1.17099 1.24687 -0.524072 1.34988 0.916401 
1.73119 -2.7548 -2.10978 1.57094 -3.62786 -1.52334 -0.565885 0.832483 1.45408 
-0.762257 1.55336 1.00106 0.0737189 -0.272824 0.485129 -0.0522342 -0.0157397 0.6217 
0.213526 -0.211602 0.408791 -0.217148 2.21341 -1.49266 0.0314406 1.64023 -1.08031 
0.0602909 1.78753 -1.37185 0.189674 -0.0166228 0.495944 0.425065 -0.232265 0.308434 
0.644405 -0.172491 0.27769 0.664512 -0.34494 0.160414 -0.085456 -0.25381 0.641005 
0.202847 -0.488587 0.346175 0.0368889 2.0409 -1.68515 0.0450808 2.22942 -1.94214 
-0.256631 2.66175 -2.00585 -0.459837 0.190052 1.15129 -0.315373 -0.146333 0.979723 
-0.409018 -0.0648871 1.16626 -0.361466 -0.296106 1.18685 -0.461277 0.00126721 1.28803 
-0.0745733 0.275069 0.717688 0.0401099 0.253675 0.680434 -0.202824 -0.214079 0.795415 
-0.308907 0.097356 0.894734 -0.48156 0.485644 1.07707 -0.419105 0.443189 0.992474 
-0.14643 -0.45042 0.761253 -1.59839 2.18224 -0.299165 -1.33317 1.88048 0.134475 
-1.23059 1.91101 0.0959096 -0.166084 0.263139 0.753031 -0.328195 0.579766 0.922837 
2.06423 0.150114 0.516016 2.25777 0.124804 0.534493 2.41566 0.0847476 0.391222 
-1.53937 2.36987 -0.542727 -1.84707 2.7723 -0.960238 -1.81888 2.53087 -0.700489 
0.43162 0.750794 1.17372 -0.0649403 0.973477 1.22031 0.392443 0.810282 1.0891 
2.41905 0.0703938 0.530481 1.96527 0.201509 0.70473 1.6393 0.222707 0.673461 
1.85948 0.145791 0.481242 2.4931 0.0146939 0.51813 2.73901 -0.0719053 0.384862 
1.15726 -0.00567722 0.329915 1.23467 -0.108186 0.187395 0.907905 -0.0881207 0.288686 
0.568171 0.00885734 0.43154 -0.0748901 0.454363 0.837208 0.233942 0.194578 0.61952 
1.60817 0.113202 0.432637 1.30752 0.0753739 0.414594 1.28456 0.16974 0.572031 
0.930897 0.11247 0.509638 -1.75448 1.21987 1.11392 -2.27007 1.38834 0.778095 
-2.19102 1.37661 0.897504 0.867552 0.257532 0.730776 1.05281 0.278115 0.774869 
1.8586 0.0824366 0.315442 0.54996 0.999089 -1.36533 0.719598 0.761213 -1.50185 
0.397818 1.52526 -1.72455 0.28854 0.488977 1.08205 0.418728 0.399038 0.927074 
-0.00718275 0.576723 1.13416 -0.664628 0.914858 1.30864 -0.57716 0.548667 1.26565 
-0.613835 0.643185 1.33251 0.585991 -0.105523 -0.273598 0.768929 -0.467303 -0.449537 
0.735418 -0.146501 -0.582255 -0.361446 -0.138292 1.352 -0.350373 0.0595516 1.27163 
-0.420194 0.0890045 1.3526 0.072318 -0.124675 0.721406 0.224693 -0.174982 0.494994 
0.0792927 0.076827 0.608861 -0.252172 -0.00110127 1.15487 -0.304731 0.242401 1.14017 
-0.488567 0.0848331 1.40129 -0.430498 -0.169228 1.39415 -0.463804 0.0972916 1.39583 
-0.150004 -0.080365 1.03756 -0.182854 -0.226377 1.14176 -0.101995 1.38916 -0.272534 
-0.180733 1.6793 -0.684581 -0.365458 1.82255 -0.586523 0.202037 -0.449264 0.696943 
0.0699865 -0.293103 0.809595 0.0841855 -0.45983 0.872058 1.40975 -3.57569 -0.76802 
1.33594 -3.53239 -0.754853 1.46157 -3.67965 -1.00587 -0.052988 -0.126243 0.914187 
0.325182 -0.610313 0.610492 0.288623 -0.407213 0.529871 0.382248 -0.815683 0.677461 
0.464779 -0.810964 0.535641 -0.0836872 0.268619 0.788907 -0.210073 0.335207 0.961045 
-0.134775 0.094591 0.943773 1.41956 -3.522 -0.670657 1.47091 -3.49014 -0.688623 
1.3812 -3.39685 -0.46996 1.63434 -3.12006 -1.27362 1.64252 -3.38676 -1.25765 
1.71294 -3.1891 -1.60299 0.361633 -0.296633 0.321877 -0.241772 0.939583 0.71754 
-0.408617 1.09979 0.915542 -0.369095 0.819629 1.00615 -0.472864 0.350833 1.33648 
-0.629163 0.718375 1.35953 -0.545323 0.321331 1.33567 -0.531702 0.689319 1.30093 
-0.456123 0.613319 1.22517 -0.332942 0.515711 1.07924 -0.501176 0.116635 1.36033 
-0.554248 0.401281 1.39261 -0.330221 2.10069 -1.14565 -0.0502532 1.60262 -0.83223 
0.440571 0.705948 -0.642531 0.200897 1.1606 -0.672129 0.272297 0.807111 -0.317478 
-0.44847 2.75874 -1.87745 -0.467428 2.53788 -1.57821 -0.66317 2.6781 -1.52932 
-0.702069 2.27112 -0.900405 -0.870757 2.72581 -1.38438 -1.08932 2.72426 -1.20743 
0.651051 -0.736298 0.0500612 0.759685 -0.991923 0.0325457 0.763168 -0.729366 -0.238481 
-0.680067 1.91826 -0.249839 -1.00757 2.27203 -0.609769 -0.814064 1.96027 -0.181887 
0.0404454 0.358568 0.533946 -0.0856806 1.18086 0.0990376 -0.254468 1.35229 0.25281 
-0.138297 1.04 0.422609 0.615529 -1.0524 0.488312 0.550963 -0.786001 0.335551 
-0.580231 1.03861 1.22566 -0.588341 0.774892 1.33896 0.170355 2.17492 -2.0964 
2.25889 -0.00915604 0.504469 1.73661 0.230784 0.684908 1.99385 0.0812909 0.536684 
1.08927 0.350959 -2.34833 1.31093 -0.319924 -2.21843 1.26289 -0.202164 -2.31976 
1.13816 0.490888 0.771572 1.08672 0.497362 0.676102 1.60568 0.247755 0.595461 
2.12243 -0.0337433 0.413763 2.42287 -0.0347577 0.497331 2.67816 -0.193802 0.351865 
1.1818 -0.0455225 -2.38551 1.1175 0.00623037 -2.41469 0.96915 0.548508 -2.45244 
1.24155 0.452773 0.836234 0.777602 0.659963 0.930443 2.40245 0.0185614 0.545221 
2.03635 0.143116 0.66529 0.482025 0.808214 0.758749 0.91407 0.5645 0.612471 
-0.165689 1.10493 1.03993 0.178468 0.961664 0.892654 0.304081 0.881306 0.993467 
1.54871 0.32816 0.800499 2.08335 0.158558 0.69233 -0.0953234 1.11041 0.838426 
-0.630292 1.36225 0.944479 -0.609787 1.37713 0.840884 -0.702623 1.43824 0.737341 
-1.17425 1.64352 0.813434 -2.07028 1.93242 0.64141 -1.98811 1.9722 0.54618 
-1.64875 1.8261 0.73883 -1.37978 1.68297 0.896333 -0.46875 1.19194 1.17476 
-0.641722 1.32631 1.0591 0.892444 -2.99003 -0.429672 1.04166 -3.18341 -0.577083 
0.922479 -2.98693 -0.418733 0.945388 0.544916 1.07183 1.52593 0.344823 0.860649 
1.52268 0.342909 0.898537 -1.06996 1.52339 1.01406 -1.49025 1.66297 0.978535 
-2.85322 2.0634 0.238209 -2.43045 1.96348 0.538172 -2.70841 1.94332 0.443689 
-2.41862 1.78717 0.709903 -2.80788 1.86438 0.450809 -2.59309 1.7015 0.66057 
-3.01461 1.82527 0.340584 0.796612 -2.913 -0.578818 0.747136 -2.79351 -0.623256 
0.93235 -2.93768 -0.878219 -3.32889 1.92401 0.0538251 -3.12047 1.76258 0.27924 
-1.96883 1.82207 0.806222 -1.88586 1.61554 1.0287 -1.68696 1.65003 1.02213 
-1.2822 1.4159 1.24417 1.18604 -3.39449 -0.79485 1.16448 -3.33905 -0.66749 
-0.631724 1.1839 1.29212 1.41074 -2.21949 -2.13123 1.51168 -2.8752 -1.97364 
1.34836 -2.35275 -2.0158 -2.03844 2.58449 -0.744278 -1.50828 1.87181 0.115378 
-1.13844 1.68081 0.515565 -2.51668 3.02466 -1.14865 -2.24374 2.52236 -0.680988 
-2.43218 2.38701 -0.558254 -1.94805 2.10232 -0.225457 -1.67883 2.82139 -1.04913 
-1.33535 2.42472 -0.666975 -1.37499 2.63329 -0.926748 -2.18663 1.8995 -0.0297197 
-1.76771 1.59281 0.412282 -1.66975 1.64716 0.367395 -1.2741 2.70119 -1.06284 
-1.51934 3.22461 -1.55361 -1.05732 3.27304 -1.88138 -0.279305 -0.255994 0.880868 
-0.345803 -0.0994422 1.08341 -0.398049 0.749078 1.10393 -0.17904 0.513344 0.332793 
-0.308654 1.50145 0.514148 -0.233883 1.26163 0.307018 0.247464 -1.6364 -0.193258 
0.102402 -0.959409 -0.054205 0.209472 -1.19392 -0.259423 -0.552158 3.15675 -2.20819 
-2.00508 3.12952 -1.2992 -0.595206 1.28271 1.10342 -0.590331 1.44842 0.921167 
-0.65737 1.41099 1.08602 0.0276962 -0.325104 -0.0466814 -0.0336953 -0.378607 0.144588 
-3.14015 1.7542 0.0442098 -3.17106 1.71178 0.148771 -2.739 1.56066 0.412915 
-2.13393 1.4029 0.975253 -2.10404 1.48486 1.00415 -1.52818 1.24453 1.31249 
0.548797 -2.62531 -0.355607 0.38394 -2.53946 -0.0503852 0.342653 -2.35135 -0.0885753 
-3.16789 1.72269 0.221169 -3.46148 1.81896 -0.0769688 -3.43531 1.99163 -0.319673 
-3.0795 1.83637 -0.0657403 -2.71296 1.57649 0.573388 -2.65126 2.10803 -0.307739 
-2.61044 2.28434 -0.474323 -2.95313 2.77157 -0.937769 -2.40627 1.77154 0.0872996 
-2.87008 2.04868 -0.273366 -3.30923 2.42201 -0.680005 -2.98675 1.92512 -0.157407 
-0.229362 -0.186166 0.696946 -0.143942 -1.04241 0.651709 -2.55479 1.59915 0.305842 
0.00894394 -1.57862 0.393851 -0.0305648 -1.07947 0.347364 0.145074 -1.85507 0.149969 
-1.10018 1.13374 1.14925 -1.22268 1.23926 1.01462 -1.52641 1.26467 0.914757 
0.777359 -2.39311 -1.07667 0.842305 -2.53225 -1.08488 0.761982 -2.54056 -0.909965 
-0.183861 -0.147252 0.538147 -0.111034 -0.300811 0.35227 -1.7038 1.21891 1.01297 
-2.07338 1.36736 0.717154 -2.23187 1.39005 0.705851 -0.999949 2.04933 -0.219264 
-0.734046 1.77477 0.217498 0.930867 -2.599 -1.20303 0.871697 -2.38691 -1.26916 
-0.0102102 2.74899 -2.45183 0.381122 1.92411 -2.20967 -1.20488 2.01575 -0.0833347 
-1.23993 2.18125 -0.344275 0.856519 -1.47112 0.437323 0.788611 -1.24099 0.278266 
0.747919 -1.28681 0.478414 0.687229 -1.27852 0.632668 1.20449 -1.37683 -0.900434 
1.08544 -0.851072 -0.948084 1.06144 -1.14912 -0.68457 0.958127 -1.71161 0.50531 
0.969379 -1.6281 0.253751 1.05334 -1.93442 0.523377 0.96709 -1.80576 0.720508 
1.25587 -0.475294 -1.6979 1.21085 -0.121446 -1.96554 1.04421 0.265566 -1.85983 
1.19755 -2.3268 0.476527 1.12848 -2.1259 0.514503 1.15128 -2.24887 0.740093 
1.40731 -2.80006 -0.362756 1.34066 -2.59266 -0.174716 1.33853 -2.73971 0.0248504 
1.25791 -2.61802 0.568782 1.29598 -2.69901 0.3105 1.25572 -2.52998 0.407622 
1.26065 -2.43286 0.149403 1.11674 -1.99734 0.241483 1.44724 -3.20719 -0.433035 
1.44904 -3.03993 -0.451018 1.38589 -3.01891 -0.134007 1.30672 -2.11988 -0.586415 
1.19038 -2.02897 -0.144302 1.28681 -2.32763 -0.217106 0.923569 0.831239 -2.37558 
0.784314 1.19041 -2.3593 1.06595 0.410341 -2.19928 0.865466 0.587796 -1.70044 
0.740362 1.08739 -2.01714 -0.305228 0.768246 0.712408 0.60574 1.56051 -2.29931 
0.462822 1.99988 -2.53073 0.891784 0.872178 -2.45412 1.50818 -1.19965 -2.30536 
1.40742 -0.735622 -2.30799 1.59957 -1.47289 -2.20521 1.33108 -2.84268 0.151039 
1.56179 -1.5652 -2.30401 1.32632 -0.701643 -2.36858 1.69501 -2.08632 -2.03084 
1.6117 -1.56979 -2.04902 1.47748 -3.36221 -0.605071 1.56251 -3.50038 -0.957793 
0.782472 1.08943 -2.51526 1.33825 -2.97209 0.0905214 1.51874 -2.95716 -0.835083 
1.0866 -1.80253 0.00307878 1.10838 -0.167878 -2.40518 1.34434 -3.09232 -0.0317653 
1.30294 -2.93251 0.237608 0.991683 -1.51224 -0.0546897 1.33194 -3.25755 -0.256493 
1.34404 -3.18331 -0.146689 1.29006 -3.13128 -0.0678225 1.64715 0.295684 0.856975 
1.33225 -3.43526 -0.558584 1.30063 -3.29558 -0.34557 1.26349 -3.30008 -0.409142 
1.22175 -3.18616 -0.283113 1.40021 -3.22899 -0.289889 1.15557 -3.21108 -0.454863 
1.23346 -3.36101 -0.573805 1.24139 -3.31574 -0.476835 1.07731 -3.11824 -0.441342 
1.00939 -3.04039 -0.422418 1.10737 -3.21266 -0.532486 1.09531 -3.09152 -0.380226 
1.34378 -1.27946 -2.31585 1.58815 -1.91269 -2.28666 1.56024 -2.13185 -2.25029 
0.903369 -2.85882 -0.322433 0.918265 -2.9311 -0.372589 1.74469 -3.21379 -1.80917 
1.75426 -2.88518 -1.92571 1.73228 -3.23626 -1.90616 1.68799 -3.26493 -1.91737 
1.66931 -2.77935 -2.12502 1.22016 -3.3907 -0.659273 0.798109 -2.78954 -0.280855 
0.667913 -2.60297 -0.149284 0.689341 -2.67998 -0.186439 0.807123 -2.91269 -0.364982 
0.752394 -2.80174 -0.272464 0.614214 -2.63046 -0.120102 0.548638 -2.61591 -0.0607858 
0.471235 -2.49877 0.0361588 0.812265 -2.95702 -0.42305 0.652475 -2.76292 -0.200105 
0.229837 -2.34724 0.321024 0.340938 -2.46988 0.180468 0.340874 -2.41066 0.186293 
0.404351 -2.40503 0.11352 -0.0485118 -2.0964 0.697155 0.0874225 -2.28486 0.504211 
0.098601 -2.25656 0.491168 0.102471 -2.21232 0.484678 -0.185743 -1.81401 0.90651 
-0.16944 -1.84029 0.880521 0.381043 -2.60149 0.0863889 0.37523 -2.554 0.12295 
0.214611 -2.43583 0.325187 1.68357 -2.50813 -1.72893 1.56841 -2.39466 -1.36445 
1.60253 -2.77615 -1.2882 0.477321 -2.60566 0.00895612 1.01149 -2.83784 -1.15334 
1.10031 -3.08127 -1.11005 0.598271 -2.78275 -0.239734 0.38386 -2.60427 0.0287691 
1.71953 -2.36177 -2.16748 0.356082 0.717717 1.26584 -0.0513539 -2.0527 0.681153 
0.0414806 -2.24384 0.560274 -0.110906 -1.96243 0.784042 0.919902 0.179599 -2.40696 
1.11889 -0.489761 -2.35972 1.11544 -0.82777 -2.28545 -0.00952247 -1.8244 0.515258 
1.09322 -1.0883 -2.20368 0.945991 -0.588046 -2.23463 1.09718 -1.35748 -2.12617 
1.25247 -1.60048 -2.18442 0.283098 -2.02337 -0.117032 0.402411 -2.07223 -0.387058 
1.03276 -1.442 -2.03444 1.18114 -1.84471 -2.03338 1.1779 -3.36931 -0.906946 
1.3375 -3.55921 -1.07203 0.973057 -1.73899 -1.8436 1.00347 -1.61137 -1.93581 
1.11265 -2.03879 -1.87209 1.01353 -2.59907 -1.36415 1.00286 -3.16278 -0.717882 
1.15709 -3.27117 -1.02419 0.89219 -1.12665 -2.01496 1.4812 -2.16054 -2.20314 
1.01887 -2.20813 -1.65127 0.913455 -2.00125 -1.61872 0.942502 -1.86951 -1.73737 
0.864971 -1.57344 -1.78989 0.869566 -2.20454 -1.41003 0.88479 -2.09926 -1.51052 
0.951423 -2.32061 -1.46457 0.683178 -2.63022 -0.653953 0.830788 -1.89586 -1.5617 
0.81858 -2.21296 -1.31384 0.643248 -2.44898 -0.7261 0.528357 -2.25719 -0.592045 
0.620987 -2.27247 -0.81328 0.728418 -2.24044 -1.1062 0.775487 -2.24156 -1.20738 
0.175002 -2.33582 0.292505 0.685066 -2.10712 -1.11683 0.66737 -2.20044 -0.989312 
0.585862 -2.0872 -0.851881 0.493323 -1.89209 -0.712616 0.5396 -1.86141 -0.855683 
1.28423 -2.95627 -1.59767 1.14781 -2.55605 -1.63688 1.22568 -2.50801 -1.78566 
0.764748 -2.06465 -1.33581 -0.0305531 -1.99149 0.615912 1.65106 -3.59885 -1.62229 
1.61993 -3.3232 -1.84487 -0.344558 -0.829742 1.19194 -0.274099 -1.21624 1.04039 
-0.240557 -1.53613 0.995105 -0.179477 -1.58061 0.862166 -0.405586 0.190291 1.26758 
-0.303181 -0.761145 1.05882 -0.427628 0.172544 1.3705 -0.493933 1.23857 1.50384 
-0.409306 -0.275244 1.35432 -0.463459 1.76121 1.14523 -0.508831 1.97546 1.35982 
-0.55398 2.33457 1.58981 -0.596388 3.25835 1.59056 -0.608609 3.78863 1.48644 
-0.592892 3.94278 1.30129 -0.542713 2.93725 1.25121 -0.462391 2.10731 1.02893 
-0.650035 4.35849 1.73266 -0.594289 4.53267 1.19706 -0.550048 3.78058 1.05728 
-0.577007 2.51121 1.77468 1.30182 -0.32807 -2.08449 -0.407015 1.7851 0.851911 
-0.369454 1.73032 0.699626 0.258388 -1.14488 -0.402959 0.11979 -0.565859 -0.22576 
1.25112 -2.31748 -1.91276 0.285378 -1.01208 -0.514707 0.390514 -1.61268 -0.569614 
-0.0125551 0.211651 -0.0885354 0.458864 -1.98529 -0.574935 -0.489366 3.31482 0.831141 
-0.427912 3.0017 0.612938 -0.409821 2.47689 0.664312 -0.492319 2.87798 0.962715 
-0.164723 1.13617 0.114093 -0.312429 2.15764 0.354588 -0.407432 3.2099 0.48902 
1.05289 -2.49479 -1.51535 -0.0790123 0.903053 -0.0817928 1.37759 0.346593 0.922669 