# vtk DataFile Version 3.0
vtk output
ASCII
DATASET POLYDATA
POINTS 853 float
14.2658 0.0982137 30.5251 14.1625 -0.853311 30.3433 14.1143 -1.85252 30.1261 
14.1019 -2.90999 29.8085 14.0984 -4.07697 29.3729 14.1282 -5.27212 28.7966 
14.1545 -6.4159 28.0395 14.1837 -7.55617 27.0561 14.2586 -8.62425 25.9521 
14.3531 -9.5715 24.8957 14.4594 -10.4982 23.8646 14.5607 -11.3855 22.9007 
14.6365 -12.2431 21.9553 14.6314 -13.069 20.9787 14.5402 -13.8108 20.0292 
14.4382 -14.4867 18.9979 14.2171 -15.0384 17.8984 13.8797 -15.4707 16.738 
13.4661 -15.7776 15.4934 12.9088 -15.9986 14.2542 12.2654 -16.113 13.1281 
11.6846 -15.9843 12.1343 11.3094 -15.5017 11.3984 11.1944 -14.6187 10.993 
11.2731 -13.3664 10.8821 11.4051 -12.0233 11.1021 11.6263 -10.8365 11.6318 
12.0286 -9.87558 12.4056 12.4747 -9.12612 13.3596 12.6303 -8.51606 14.4095 
12.4347 -8.03801 15.4725 12.1819 -7.75938 16.4809 12.0584 -7.60847 17.3983 
11.9985 -7.42996 18.2804 11.9082 -7.11655 19.1698 11.7619 -6.60086 20.0489 
11.6029 -5.91761 20.9211 11.4717 -5.04472 21.8395 11.4204 -4.07259 22.7914 
11.4332 -3.04484 23.7638 11.5508 -1.93427 24.6739 11.8085 -0.84689 25.4157 
12.1425 0.185489 25.973 12.4559 1.12575 26.4013 12.7231 2.01001 26.8229 
12.9657 2.95269 27.2092 13.1711 3.92474 27.5702 13.3805 4.85605 27.9573 
13.6784 5.74676 28.3571 14.1199 6.60098 28.7621 14.6531 7.30513 29.1723 
15.2047 7.69968 29.596 15.6707 7.69051 29.9774 15.9076 7.26566 30.278 
15.8911 6.44243 30.5163 15.6617 5.27472 30.6932 15.3248 4.02147 30.7795 
14.9776 2.903 30.7595 14.6559 1.91204 30.7306 14.4146 1.00273 30.6761 
14.2297 0.549475 30.149 14.1437 -0.0638353 30.1397 14.0496 -0.826458 29.7964 
14.0439 -1.40999 29.782 13.9905 -2.29864 29.4422 13.9882 -3.04556 29.2782 
13.9231 -3.86923 28.7742 13.9745 -4.58375 28.5675 13.9592 -5.52858 27.9133 
14.0168 -6.34021 27.4086 13.9704 -7.04963 26.6238 14.0243 -7.73447 25.9778 
14.0931 -8.5809 25.0468 14.2049 -9.25521 24.4043 14.207 -9.83162 23.5931 
14.3156 -10.4534 23.0729 14.3415 -11.1329 22.2216 14.327 -11.7075 21.5117 
14.298 -12.2589 20.72 14.259 -12.7638 20.2422 14.1308 -13.3284 19.4138 
13.9358 -13.6978 18.7732 13.705 -14.0479 17.9116 13.4882 -14.3872 17.2775 
13.1448 -14.7063 16.3122 12.844 -14.7937 15.6192 12.5457 -15.0618 14.7304 
12.1977 -15.1267 13.9168 11.8118 -15.2768 13.0486 11.5768 -15.0222 12.5487 
11.3446 -14.9553 11.9832 11.2398 -14.5238 11.6502 11.245 -13.8104 11.4853 
11.2918 -13.0701 11.4809 11.3194 -12.365 11.5081 11.3982 -11.6476 11.7593 
11.5027 -10.9698 12.3406 11.6202 -10.4723 12.8254 11.7505 -10.0163 13.5347 
11.9353 -9.60001 14.2381 12.0345 -9.22714 15.1005 12.096 -9.05168 15.7815 
12.1081 -8.8422 16.5846 12.1651 -8.66281 17.143 12.1939 -8.37732 18.0039 
12.2319 -8.30389 18.5432 12.1948 -7.85882 19.4908 12.1022 -7.5373 20.0348 
11.9953 -6.90903 20.8748 11.8877 -6.50598 21.4261 11.7882 -5.61379 22.3601 
11.7164 -5.00107 22.9103 11.7082 -4.1002 23.7582 11.6899 -3.46954 24.334 
11.7559 -2.38123 25.1702 11.9047 -1.7088 25.6208 12.1184 -0.741802 26.1809 
12.3094 -0.0575165 26.5088 12.4341 0.671857 26.7535 12.6864 1.30443 27.0309 
12.901 2.12638 27.3098 13.124 2.64423 27.6063 13.2633 3.41799 27.8102 
13.5061 4.0774 28.0592 13.7293 4.96083 28.3175 14.0164 5.56665 28.5819 
14.2961 6.24766 28.8464 14.5667 6.67857 29.0711 14.9212 7.15469 29.345 
15.1637 7.20423 29.5659 15.4116 7.27993 29.7717 15.5725 7.08156 29.9744 
15.5791 6.51654 30.1582 15.5451 5.8972 30.3608 15.3274 5.02624 30.349 
15.2214 4.34154 30.4694 14.9268 3.35441 30.4129 14.7339 2.65271 30.4931 
14.4993 1.89408 30.2864 14.3951 1.34859 30.3461 15.2119 6.56648 29.7219 
14.9383 6.67275 29.422 15.156 5.66386 29.9698 14.5182 5.84484 29.1166 
14.8617 5.98763 29.509 14.8414 4.2092 29.9976 14.0531 4.55577 28.769 
14.5845 4.91649 29.4177 14.461 2.73404 29.9124 13.6117 3.13644 28.3956 
13.8927 0.0727069 29.4172 14.1298 1.39277 29.7115 12.8452 0.489371 27.5227 
13.2123 1.79964 27.9813 11.3463 -13.2115 12.0887 12.2993 -4.29563 24.9413 
12.319 -2.61379 26.0813 14.218 3.50267 29.2325 12.6512 -0.722856 27.0766 
11.3803 -14.0553 12.2861 11.3735 -12.2514 12.1673 13.5778 -4.27827 27.611 
13.6825 -2.78389 28.4769 13.7191 -1.34102 28.9404 13.8107 -9.60277 22.6975 
13.7129 -11.6307 20.0804 11.6855 -5.86923 21.6642 12.3578 -5.91275 23.4987 
12.1131 -7.78742 18.8836 11.5699 -2.7645 24.5322 11.6762 -14.0676 13.3397 
11.517 -11.5119 13.1723 13.609 -5.80961 26.5993 13.7373 -8.46338 23.9477 
12.6416 -8.62921 20.3185 12.5619 -9.3987 18.6319 13.6766 -6.91727 25.6953 
11.9841 -3.18584 25.1592 12.4268 -7.34829 21.89 13.824 -10.5565 21.4992 
13.0056 -13.0278 17.4597 13.8533 2.16269 28.9853 12.1342 -6.44434 22.3108 
12.491 -8.76244 19.327 11.529 -13.0755 12.8562 12.0545 -13.802 14.5398 
11.6756 -11.0016 14.3635 13.458 -12.3886 18.8438 12.3671 -9.94644 17.0856 
12.4936 -13.5393 16.0618 12.0375 -10.4751 15.7468 12.7446 -3.72612 26.2103 
13.5407 0.970251 28.7201 11.7093 -12.6263 13.9703 12.1429 -4.9952 23.9987 
12.8574 -5.47529 25.1536 12.3919 -9.48822 17.8539 12.4964 -7.90529 21.0789 
12.9454 -7.25884 23.3825 13.1109 -9.91149 20.1251 13.0667 -2.90598 27.2085 
12.8874 -10.8436 18.5061 13.1783 -9.10694 21.5219 13.2795 -2.02716 27.9377 
13.1432 -1.18579 27.9529 13.4044 -13.0704 18.2162 12.9286 -11.8702 17.9776 
13.7739 -12.3231 19.5913 13.2632 -11.3493 19.3363 12.3795 -14.1062 15.2902 
12.1282 -12.9312 15.3447 12.2107 -11.9786 16.1544 12.8854 -13.7078 16.7963 
12.5446 -12.6699 16.7703 12.4836 -11.3309 16.9781 11.8236 -10.2592 14.9522 
11.8904 -11.4286 15.2512 12.1713 -9.89742 16.3632 13.1519 -8.35026 22.5233 
13.5561 -7.40742 24.7056 13.1544 -6.39743 24.7861 12.6481 -10.7666 17.6876 
13.0942 -4.78785 26.249 13.6555 -10.9091 20.6126 13.3082 -9.84543 20.8959 
12.65 -1.80635 26.8901 13.3012 -0.241378 28.3392 11.8518 -12.3007 14.7898 
13.0153 -10.3178 19.462 14.0927 -14.3593 18.4224 13.8454 -13.9546 18.3092 
13.9255 -14.4678 17.9525 11.7728 -6.18037 21.5213 11.9976 -6.51714 21.8082 
11.8601 -6.12219 21.9278 13.6223 -14.2225 17.6306 13.8473 -14.7525 17.548 
13.6832 -14.9368 17.0574 14.0454 -15.2653 17.3297 14.1979 -14.118 18.8884 
14.3536 -14.7838 18.454 11.7223 -5.72406 21.9948 11.6203 -5.35269 22.1167 
11.5828 -5.53378 21.6917 14.2108 -13.0696 19.8387 14.3531 -13.6057 19.7085 
14.4072 -13.2719 20.1833 14.5793 -13.4457 20.5118 14.4612 -12.9659 20.58 
13.3891 -13.6389 17.7028 13.2503 -13.7717 17.392 14.2869 -13.8894 19.2756 
14.029 -13.5004 19.0988 13.8212 -12.9224 19.1509 13.7179 -13.0812 18.8607 
14.4968 -14.1599 19.5242 12.2214 -8.34514 18.3143 12.3588 -8.87523 18.3002 
12.3826 -8.78147 18.5971 13.5536 -13.5617 18.0799 13.2282 -13.0522 17.8664 
12.5117 -15.6051 14.0519 12.2588 -15.6524 13.5692 12.5928 -16.0758 13.6747 
12.1701 -8.02647 18.7014 12.0504 -7.62731 18.6293 12.1126 -7.91213 18.4013 
11.4701 -13.592 12.6085 11.4267 -13.1614 12.4226 11.366 -13.5696 12.1888 
11.9964 -15.6803 13.0777 11.9804 -15.1819 13.4454 12.3775 -15.0899 14.3314 
12.7328 -15.5477 14.5162 11.7697 -15.6458 12.6518 11.9529 -16.0889 12.618 
13.3256 -15.2552 15.9726 13.6921 -15.6431 16.1265 13.5014 -15.1178 16.495 
13.3295 -14.5825 16.7985 12.9376 -13.4123 17.1173 13.1473 -14.0185 17.0193 
12.9575 -15.4513 15.0382 13.0888 -15.2362 15.5474 12.7457 -14.9842 15.2114 
12.9921 -14.7748 15.9258 11.7602 -10.5648 14.6902 11.8271 -9.94565 14.6289 
11.7559 -10.2109 14.2944 12.5846 -14.4545 15.4501 12.4394 -14.557 15.0135 
13.1977 -15.8953 14.8608 12.0075 -5.7579 22.8084 11.9843 -5.43452 23.1533 
11.7575 -5.35904 22.5999 12.2461 -13.5867 15.319 12.4258 -13.8489 15.6363 
12.2827 -13.1939 15.7108 13.7431 -11.9857 19.8502 14.0096 -12.5366 19.8969 
14.0253 -12.2366 20.1989 13.29 -7.31857 24.1102 13.3272 -6.9005 24.6516 
13.0191 -6.77 24.068 14.6031 -11.8159 22.432 14.4798 -11.3062 22.5422 
14.5042 -11.6829 22.1216 14.2051 -9.52863 24.0051 14.0376 -8.90054 24.2801 
14.006 -9.21053 23.7549 14.4408 -10.8882 23.0023 14.3139 -10.7216 22.6851 
14.5058 -12.3613 21.3244 14.6534 -12.6636 21.4699 14.5076 -12.008 21.7471 
14.4007 -10.5162 23.411 14.5123 -10.9517 23.3694 12.4771 -7.6361 21.5164 
12.189 -7.15318 21.3326 12.2226 -7.39156 20.9392 14.2876 -9.41666 24.633 
14.3289 -9.80816 24.189 14.4061 -10.0282 24.3854 13.9319 -0.995502 29.455 
13.979 -0.472641 29.6153 13.7876 -0.609363 29.1585 14.34 -10.1238 23.7299 
14.2445 -9.056 25.0421 14.1443 -8.92506 24.6976 14.3029 -9.10703 25.4165 
14.2019 -8.63835 25.5084 14.0322 -9.65976 23.2584 14.1285 -10.1235 22.9112 
14.2561 -10.1515 23.322 13.9425 -1.41996 29.4571 13.8788 -1.9005 29.1974 
14.0114 -1.79982 29.6085 13.3964 -2.91828 27.8229 13.4634 -2.33546 28.1714 
13.1838 -2.43593 27.6089 13.9206 -8.44281 24.5645 13.4854 -9.36224 22.1011 
13.5166 -9.8252 21.575 13.8047 -10.1077 22.0281 14.3486 -11.4555 21.8487 
14.0355 -11.9691 20.4312 14.3062 -12.5274 20.5167 14.0895 -11.1478 21.4956 
14.1104 -10.8595 21.8993 14.0883 -10.4109 22.4123 14.4696 -12.6102 20.8799 
14.3169 -12.0275 21.085 11.9369 -6.6868 21.1954 12.1145 -6.88648 21.6151 
12.4975 -6.83265 22.7932 12.3038 -6.92916 22.1538 12.6814 -7.38385 22.5728 
11.624 -5.86632 21.3483 11.7421 -6.25691 21.1716 11.7923 -6.44596 20.8451 
12.043 -7.21792 20.4495 11.8598 -6.74578 20.451 11.9201 -7.0744 20.0094 
13.8192 -7.60171 25.3517 13.8386 -7.31995 25.8065 13.5991 -7.10813 25.2142 
12.338 -8.01951 20.1587 12.1617 -7.7353 19.7228 12.3636 -8.18308 19.821 
13.756 -9.00768 23.303 12.8161 -8.16011 21.7752 12.8318 -8.47649 21.316 
13.1637 -8.731 22.0096 14.1636 -8.16517 26.0271 14.0461 -8.14143 25.4974 
13.7725 -10.7783 21.0845 14.031 -11.3499 21.1121 11.5637 -4.99068 22.3912 
11.3295 -15.2352 11.7215 11.2741 -14.7166 11.8267 11.2501 -14.9593 11.5047 
11.6082 -3.10721 24.4049 11.8225 -3.37515 24.7065 11.7211 -2.94758 24.7892 
11.234 -14.1975 11.5773 11.2099 -14.1626 11.2159 11.2137 -14.6007 11.3368 
11.2226 -15.1106 11.1566 11.4728 -15.4375 12.0134 11.467 -15.7909 11.7205 
11.6482 -2.55102 24.8417 11.6363 -2.16615 24.9407 11.5344 -2.4354 24.5497 
11.2799 -14.2832 11.9146 11.2928 -13.8965 11.8734 11.607 -15.4555 12.3728 
[...]
POINT_DATA 853
VECTORS velocity double
0.921949 -3.35821 -0.52131 1.09391 -3.41744 -0.576769 1.21297 -3.35693 -0.464591 
1.29428 -3.18066 -0.210432 1.33263 -2.87443 0.161521 1.29585 -2.4777 0.522246 
1.16176 -2.02321 0.722992 0.901211 -1.49335 0.758663 0.551279 -0.968107 0.745146 
0.204586 -0.546593 0.831836 -0.115509 -0.236579 1.05805 -0.358711 -0.0690395 1.32743 
-0.494489 -0.037454 1.49291 -0.501516 -0.122402 1.43715 -0.380339 -0.274247 1.15838 
-0.13821 -0.391959 0.738914 0.218002 -0.359611 0.37764 0.713219 -0.167022 0.205619 
1.34413 0.0917691 0.245087 2.02107 0.211863 0.384499 2.53741 0.110198 0.486181 
2.70294 -0.0404965 0.523028 2.44017 0.0203901 0.563702 1.7051 0.455908 0.684921 
0.407715 1.26214 0.846451 -1.08157 2.0279 0.87169 -2.34805 2.37852 0.695472 
-3.26469 2.34837 0.438788 -3.72802 2.19475 0.219947 -3.83427 2.25706 0.0118375 
-3.74595 2.68068 -0.265937 -3.45238 3.22121 -0.567394 -3.03308 3.61904 -0.81071 
-2.5675 3.86959 -1.03858 -2.06708 4.0017 -1.3337 -1.52632 4.01409 -1.75357 
-0.918447 3.82814 -2.23362 -0.245852 3.36248 -2.6989 0.369336 2.57011 -2.97683 
0.796295 1.53614 -3.01233 0.9548 0.434264 -2.87461 0.932858 -0.597315 -2.63659 
0.856108 -1.44317 -2.3456 0.785151 -2.03978 -2.03853 0.73529 -2.4684 -1.7317 
0.649383 -2.65304 -1.41981 0.516967 -2.50433 -1.1145 0.334529 -1.94589 -0.784956 
0.0784853 -0.854901 -0.363101 -0.241321 0.830566 0.198436 -0.539887 2.70973 0.838207 
-0.76237 4.09639 1.48105 -0.897168 4.56218 2.01039 -0.934648 3.97572 2.28877 
-0.856264 2.33466 2.23022 -0.622109 0.037165 1.76522 -0.271401 -1.72209 1.08816 
0.0993329 -2.60404 0.469585 0.433269 -3.01187 -0.00336076 0.702367 -3.21626 -0.32283 
0.920786 -3.5503 -0.607849 1.04149 -3.57886 -0.683026 1.20922 -3.67617 -0.805127 
1.26078 -3.58802 -0.722553 1.36027 -3.45676 -0.627925 1.38636 -3.23381 -0.403176 
1.42397 -2.93295 -0.258461 1.38195 -2.64586 0.0238717 1.29515 -2.17847 0.200405 
1.14538 -1.79394 0.37836 0.94639 -1.32082 0.371282 0.712953 -0.938453 0.442249 
0.37501 -0.45255 0.547993 0.126525 -0.190975 0.707396 -0.135794 0.140121 0.882235 
-0.307196 0.222299 1.09483 -0.516078 0.395333 1.32485 -0.628301 0.454401 1.44851 
-0.675039 0.464167 1.44293 -0.624497 0.324564 1.36589 -0.500956 0.203104 1.12373 
-0.351793 0.137314 0.906637 -0.108702 0.13074 0.67222 0.171761 0.115325 0.529956 
0.617319 0.217742 0.485903 0.924171 0.336029 0.569958 1.42972 0.392966 0.646633 
1.78254 0.4198 0.752692 2.15125 0.329725 0.766565 2.05496 0.38408 0.82862 
2.04943 0.355374 0.791471 1.66268 0.561926 0.843804 0.92174 0.992383 0.950152 
0.0883554 1.44945 1.03286 -0.707377 1.83485 1.03666 -1.50092 2.11694 0.997576 
-2.20278 2.19586 0.947653 -2.663 2.16774 0.84907 -2.98227 2.06593 0.7458 
-3.18233 2.03943 0.586576 -3.18292 2.14627 0.39202 -3.03572 2.31099 0.258993 
-2.80951 2.59333 0.0708742 -2.6462 2.82052 -0.0768667 -2.34507 3.13454 -0.305972 
-2.08349 3.18879 -0.357998 -1.67934 3.33054 -0.665324 -1.41126 3.34512 -0.900373 
-0.934097 3.23673 -1.32955 -0.57803 3.03198 -1.58434 0.0607226 2.51814 -2.06448 
0.429747 2.11006 -2.33403 0.900696 1.28713 -2.56024 1.12444 0.671211 -2.6273 
1.26397 -0.305116 -2.63222 1.25335 -0.912377 -2.57074 1.1739 -1.67675 -2.4079 
1.09833 -2.1276 -2.24797 0.996458 -2.4035 -2.06598 0.929956 -2.71318 -1.84805 
0.820148 -2.88596 -1.57579 0.749303 -3.00779 -1.33887 0.605687 -2.85846 -1.08878 
0.437383 -2.57202 -0.78736 0.197422 -1.79418 -0.431411 -0.0332036 -0.906038 -0.0500064 
-0.275747 0.393969 0.353243 -0.455886 1.45122 0.707646 -0.646366 2.76339 1.14484 
-0.744152 3.15235 1.45235 -0.827539 3.5692 1.74055 -0.862899 3.35142 1.9438 
-0.814927 2.23788 1.95839 -0.718784 1.00738 1.85862 -0.493737 -0.631051 1.42775 
-0.310817 -1.55241 1.12472 0.0272921 -2.53757 0.560671 0.256525 -2.91282 0.227534 
0.54114 -3.27124 -0.176187 0.687749 -3.35933 -0.344811 -0.714203 1.97338 1.52758 
-0.62081 1.87435 1.18339 -0.569169 0.23001 1.42178 -0.322792 -0.0754588 0.612555 
-0.506228 0.51402 1.08658 -0.139976 -2.02003 0.751039 0.144012 -2.13782 -0.108777 
-0.181566 -1.41982 0.60653 0.379363 -3.17746 -0.0147356 0.611666 -3.18612 -0.809721 
1.17594 -3.86294 -0.998475 0.831123 -3.65319 -0.616062 1.20332 -3.23945 -1.84045 
0.956536 -3.42148 -1.38783 0.246565 1.32818 1.17053 1.3431 -0.271178 -1.96889 
1.55267 -1.59108 -2.23046 0.313394 -2.96244 -0.106174 1.38634 -2.84761 -2.10096 
1.17407 0.850324 1.06233 -0.842489 1.79858 1.20336 1.50573 -2.47827 -0.694862 
1.52248 -3.31679 -0.955653 1.42325 -3.78622 -1.1545 -0.349709 0.781258 0.811878 
-0.859209 1.10451 1.33846 -0.39592 3.15186 -2.0854 0.589386 1.13031 -1.41571 
-2.06617 3.53435 -0.759661 1.09837 0.543827 -2.78501 1.06579 0.807617 1.14602 
-1.59671 1.81996 1.28207 1.22983 -1.50982 -0.314271 0.142075 0.277542 0.353693 
-1.12236 2.53037 0.0497237 -1.64794 2.49696 0.389638 0.860781 -0.798951 -0.0448824 
1.39657 -0.415628 -2.4079 -0.376694 2.194 -0.719014 -0.695718 1.06894 1.18734 
-0.440035 0.773414 0.922897 0.774123 -3.61106 -0.757648 -0.0581709 2.20864 -1.37633 
-1.5437 2.77696 0.0323404 0.0570159 1.30402 1.31405 0.582045 0.791391 1.12594 
-1.90837 1.66136 1.22053 -0.760799 0.955383 1.15554 -1.96186 2.1 0.639562 
0.0737366 0.698066 0.924764 -2.03315 1.73263 0.945338 1.59861 -1.6752 -1.73017 
1.11911 -3.83724 -1.22631 -0.438826 1.26891 1.41793 0.952379 0.765883 -1.90572 
1.17977 -0.498328 -1.14628 -1.90827 2.4323 0.398965 -0.803362 2.50979 -0.407643 
0.24263 0.947307 -0.448325 -1.06329 1.96837 0.822734 1.64344 -2.70929 -1.60955 
-1.22816 1.79936 0.988274 -0.659677 1.695 0.508881 1.58719 -3.38956 -1.52887 
1.52237 -3.54922 -1.6956 -0.50924 0.647947 0.964037 -0.934483 1.32287 1.0766 
-0.762135 0.824976 1.28846 -0.991656 1.47179 1.18985 0.631785 0.604279 0.89063 
-0.240749 0.972023 1.21172 -0.921697 1.24139 1.17335 0.000431744 0.535613 0.768839 
-0.528517 0.983843 1.02899 -1.24755 1.51429 1.04658 -2.41103 1.79951 0.918837 
-1.39994 1.43392 1.25987 -2.2384 2.01893 0.654809 -0.251314 1.32667 0.136547 
0.554023 -0.122851 -0.0578615 0.848056 -0.165378 -0.652182 -1.40345 1.80422 0.924846 
1.45738 -1.50943 -1.11678 -0.866544 1.3051 1.25317 -0.857627 1.69877 0.86395 
1.55651 -2.59613 -2.08464 1.3774 -3.80342 -1.55263 -0.72527 1.22824 1.3747 
-1.16942 1.95403 0.920653 -0.0940865 -0.170749 0.655218 -0.209352 0.0907616 0.752652 
0.0308666 -0.105508 0.550671 -0.503982 3.12599 -1.85299 -0.345708 2.6696 -1.46631 
-0.24337 2.75037 -1.77977 0.0168529 0.10689 0.594981 0.227047 -0.131435 0.426299 
0.44007 -0.069932 0.355715 0.446333 -0.278817 0.265251 -0.232948 -0.153896 0.81776 
0.0258537 -0.400116 0.538323 -0.173001 2.8743 -2.10091 -0.0723941 2.91203 -2.36479 
-0.363347 3.29399 -2.36035 -0.570164 0.252444 1.25664 -0.430434 -0.0578563 1.13029 
-0.510934 0.0162705 1.29267 -0.45702 -0.194244 1.32545 -0.556627 0.0789114 1.39696 
-0.225319 0.407472 0.77453 -0.107643 0.399717 0.724396 -0.334095 -0.118414 0.964787 
-0.438499 0.178334 1.0212 -0.611437 0.545684 1.14563 -0.553307 0.515302 1.06321 
-0.273697 -0.345471 0.954557 -2.19162 3.16607 -0.330017 -1.98225 2.80947 0.0438337 
-1.87852 2.86154 -0.00684247 -0.315188 0.376737 0.829751 -0.480121 0.710587 0.933794 
1.98658 0.295392 0.55814 2.20418 0.26587 0.604101 2.3127 0.182952 0.444186 
-2.09514 3.37801 -0.569459 -2.27716 3.69428 -0.893994 -2.31396 3.4869 -0.66224 
0.648095 1.08233 1.20398 0.17496 1.3217 1.23984 0.647767 1.12274 1.14116 
2.38117 0.207425 0.630884 1.97682 0.391406 0.780477 1.60472 0.417357 0.706188 
1.75455 0.291219 0.501919 2.46441 0.156667 0.64572 2.67158 0.0243207 0.510934 
0.971033 0.115243 0.343108 1.0142 -0.0361888 0.201267 0.707175 0.0215456 0.326578 
0.395436 0.148277 0.479656 -0.209171 0.62655 0.833348 0.0891063 0.352416 0.654271 
1.47143 0.254593 0.438732 1.15228 0.218377 0.420018 1.18724 0.350904 0.579849 
0.793795 0.280084 0.520208 -2.22382 1.7315 1.05708 -2.76887 1.91258 0.778799 
-2.63522 1.87848 0.903155 0.802503 0.471736 0.731324 1.01839 0.502519 0.782247 
1.69038 0.181557 0.314315 0.29579 1.94823 -1.78267 0.515535 1.66377 -1.91287 
0.224362 2.34831 -2.18233 0.256033 0.765998 1.05406 0.367419 0.642095 0.90842 
-0.0896655 0.852759 1.08554 -0.818456 0.965327 1.33238 -0.697151 0.590778 1.32884 
-0.73808 0.683814 1.38676 0.437964 0.333677 -0.245544 0.676805 -0.0641529 -0.368897 
0.570757 0.427825 -0.612682 -0.441348 -0.037211 1.43181 -0.43984 0.147484 1.3397 
-0.511757 0.17493 1.4294 -0.00272803 -0.0188842 0.781697 0.147761 -0.034619 0.57321 
-0.0262002 0.225918 0.662554 -0.336322 0.0874686 1.21307 -0.410042 0.33155 1.19513 
-0.580339 0.164009 1.4909 -0.514458 -0.0684584 1.49585 -0.55576 0.18028 1.47897 
-0.226686 0.00791811 1.08987 -0.250557 -0.133549 1.19818 -0.581389 2.34545 -0.552263 
-0.657012 2.73966 -1.0115 -0.882994 2.89221 -0.8766 0.160783 -0.362661 0.771406 
0.0135818 -0.20576 0.868538 0.0416326 -0.378824 0.928075 1.29767 -3.76851 -0.946458 
1.21086 -3.78162 -0.913071 1.31782 -3.88008 -1.1298 -0.125159 -0.0365697 0.966113 
0.300291 -0.524924 0.704016 0.241604 -0.298044 0.621752 0.375235 -0.743162 0.770962 
0.461285 -0.728328 0.651501 -0.205571 0.404894 0.8294 -0.331794 0.448117 1.0038 
-0.228925 0.192489 0.992604 1.32914 -3.6896 -0.874249 1.40041 -3.62127 -0.883329 
1.3156 -3.55617 -0.707309 1.60112 -3.06938 -1.27012 1.57014 -3.39871 -1.30292 
1.62183 -3.1038 -1.5748 0.293686 -0.131182 0.420592 -0.497373 1.24762 0.687214 
-0.671735 1.3651 0.894757 -0.560389 0.984998 1.02433 -0.582017 0.425341 1.40487 
-0.760689 0.763171 1.40838 -0.64945 0.375416 1.41765 -0.674574 0.767842 1.35193 
-0.597009 0.704251 1.2748 -0.471476 0.625227 1.12197 -0.595839 0.188028 1.45399 
-0.662104 0.459702 1.46515 -0.729777 3.12335 -1.4708 -0.483276 2.65402 -1.18857 
0.111239 1.59147 -0.913318 -0.199851 2.15175 -1.00875 -0.0786453 1.60766 -0.537248 
-0.611269 3.46767 -2.17929 -0.740519 3.4048 -1.87487 -0.965787 3.5592 -1.76783 
-1.18868 3.33042 -1.12657 -1.22601 3.65199 -1.56182 -1.49527 3.69062 -1.32433 
0.635083 -0.563393 0.202304 0.778695 -0.845857 0.199953 0.732448 -0.473264 -0.0911127 
-1.27087 2.96051 -0.458949 -1.56741 3.33876 -0.754379 -1.42554 2.99375 -0.360751 
-0.116206 0.582185 0.55934 -0.504298 1.92363 -0.0937508 -0.70811 2.08378 0.0718855 
-0.470391 1.54334 0.322937 0.638719 -0.975681 0.62059 0.546654 -0.675995 0.473906 
-0.780903 1.16479 1.24595 -0.735513 0.844235 1.38612 0.120128 2.74733 -2.54383 
2.27177 0.188319 0.67918 1.84449 0.465335 0.829857 2.04695 0.304761 0.712531 
1.10686 0.6533 -2.73388 1.26336 0.175427 -2.51507 1.23665 0.145464 -2.63321 
1.3362 0.753615 0.899965 1.28292 0.758529 0.824654 1.72037 0.494735 0.762463 
2.1393 0.186365 0.612873 2.41026 0.138793 0.66151 2.62512 -0.05004 0.535856 
1.17925 0.14001 -2.71809 1.12597 0.045203 -2.75275 1.03265 0.565075 -2.85184 
1.42665 0.714887 0.949359 1.01847 0.942528 1.02139 2.39235 0.184312 0.688424 
2.08814 0.353451 0.802859 0.758725 1.07248 0.886548 1.12337 0.825186 0.771767 
0.144603 1.40511 1.10601 0.485215 1.23775 0.991243 0.589475 1.17479 1.06866 
1.68565 0.574926 0.918664 2.1177 0.35164 0.803397 0.234109 1.37476 0.950589 
-0.293975 1.64283 1.04217 -0.261003 1.6379 0.962249 -0.353222 1.68593 0.883963 
-0.845323 1.91324 0.963572 -1.89035 2.25241 0.875564 -1.75252 2.26021 0.804397 
-1.37816 2.1168 0.931473 -1.10142 1.98639 1.03483 -0.19954 1.52985 1.21033 
-0.333696 1.63454 1.12844 0.753981 -3.49672 -0.45577 0.901796 -3.63346 -0.641407 
0.802092 -3.46451 -0.482618 1.12348 0.843421 1.12404 1.65298 0.596929 0.960474 
1.6355 0.592682 0.980572 -0.783226 1.83642 1.10827 -1.27613 2.00218 1.09706 
-2.8574 2.39921 0.566 -2.36336 2.31186 0.797831 -2.75342 2.31045 0.706543 
-2.4921 2.18738 0.892195 -2.94423 2.2504 0.683565 -2.80279 2.12447 0.816177 
-3.24186 2.21486 0.560266 0.55566 -3.36493 -0.450051 0.47964 -3.14545 -0.460571 
0.702666 -3.44672 -0.788677 -3.55398 2.2647 0.323305 -3.43313 2.16436 0.465569 
-1.8319 2.17249 0.987418 -1.8994 2.03088 1.12416 -1.57469 2.02912 1.12916 
-1.19266 1.82372 1.27285 1.0257 -3.79836 -0.856678 1.02884 -3.71387 -0.771848 
-0.440217 1.56482 1.29725 1.23305 -2.42661 -2.20912 1.30787 -3.06767 -1.9957 
1.17487 -2.67102 -2.08875 -2.49825 3.49359 -0.66167 -2.1489 2.78373 0.0459291 
-1.76811 2.46928 0.39879 -2.81064 3.77172 -0.932557 -2.6901 3.38822 -0.571979 
-2.87982 3.20471 -0.437767 -2.51567 3.0076 -0.21193 -2.10319 3.7551 -1.01366 
-1.87925 3.45809 -0.731701 -1.8541 3.63325 -0.972562 -2.75604 2.70797 -0.00818662 
-2.40803 2.35937 0.34678 -2.31565 2.448 0.296318 -1.7177 3.68649 -1.13131 
-1.79783 4.02455 -1.53171 -1.23787 3.95502 -1.98941 -0.657612 1.15771 1.50246 
-0.716925 1.33286 1.72413 -0.761505 1.99643 1.74005 -0.541849 1.63914 0.949713 
-0.638867 2.39018 1.16228 -0.565366 2.17662 0.947714 -0.149841 -0.672912 0.232679 
-0.293881 0.20343 0.447493 -0.182709 -0.149786 0.194559 -0.589973 3.64126 -2.47711 
-2.32425 3.94604 -1.16757 -0.870037 1.51002 1.08534 -0.957799 1.83506 0.855749 
-0.974123 1.68715 1.04661 -0.350744 0.821558 0.496323 -0.420788 0.844789 0.706165 
-3.58698 2.24692 0.174691 -3.59148 2.15999 0.286746 -3.22688 2.07965 0.477443 
-2.49862 1.8854 0.997606 -2.35162 1.94577 1.05879 -1.77155 1.71919 1.28156 
0.234496 -2.63343 -0.105591 0.059399 -2.32342 0.257335 -0.0168159 -1.84902 0.258578 
-3.54161 2.14143 0.379797 -3.81204 2.18194 0.120512 -3.81203 2.4304 -0.115601 
-3.53292 2.3804 0.0664739 -3.10209 2.03882 0.6698 -3.11669 2.84172 -0.194524 
-3.05304 3.04745 -0.341813 -3.24518 3.43023 -0.68537 -2.95866 2.49054 0.121877 
-3.31683 2.70832 -0.138239 -3.62855 2.96268 -0.425613 -3.4416 2.52265 -0.024835 
-0.611373 1.1741 1.30697 -0.528696 0.34234 1.22214 -3.10285 2.21045 0.339072 
-0.379162 -0.370403 0.897118 -0.427197 0.220381 0.884391 -0.244521 -0.844002 0.597004 
-1.5962 1.61814 1.02046 -1.7835 1.7903 0.886127 -2.1298 1.86299 0.805552 
0.537001 -2.77374 -0.949752 0.613238 -3.00207 -0.982125 0.496119 -2.85814 -0.756146 
-0.56707 1.1656 1.13972 -0.498333 0.98106 0.935369 -2.25395 1.76668 0.931277 
-2.65755 1.96008 0.673303 -2.77669 1.94885 0.690397 -1.62014 3.08761 -0.36185 
-1.33572 2.67508 0.0493798 0.725383 -3.16049 -1.14106 0.677296 -2.9563 -1.20786 
0.0837871 2.99962 -2.87413 0.383894 2.40209 -2.68476 -1.84131 3.01504 -0.18762 
-1.84607 3.21855 -0.438151 0.925737 -1.40922 0.557928 0.838318 -1.15295 0.429449 
0.796793 -1.21877 0.609213 0.727557 -1.21765 0.746639 1.22686 -1.04731 -0.759012 
1.02862 -0.358671 -0.891976 1.06812 -0.837457 -0.533212 1.04452 -1.66709 0.583962 
1.05579 -1.56323 0.37194 1.15094 -1.90725 0.550847 1.05047 -1.77135 0.757201 
1.15273 0.272668 -1.91858 1.13007 0.57121 -2.28634 0.940414 1.02159 -2.23598 
1.29479 -2.33959 0.394061 1.22985 -2.11653 0.490197 1.24278 -2.25811 0.644945 
1.46788 -2.81791 -0.442251 1.42493 -2.59684 -0.228549 1.40683 -2.78565 -0.115842 
1.32429 -2.68127 0.359654 1.36189 -2.76075 0.122971 1.33948 -2.56877 0.265292 
1.35731 -2.44162 0.0869994 1.22201 -1.96226 0.287984 1.44175 -3.29658 -0.620551 
1.47463 -3.09169 -0.582731 1.41107 -3.10342 -0.336974 1.3965 -2.00172 -0.47596 
1.29452 -1.9622 -0.0587212 1.38656 -2.2897 -0.19115 0.975421 1.09876 -2.81173 
0.841633 1.49651 -2.8255 1.04548 0.920391 -2.59976 0.717891 1.41906 -2.10901 
0.675328 1.74118 -2.48055 -0.66631 1.92281 1.34511 0.64562 1.94768 -2.78188 
0.610005 2.07945 -3.01988 0.97596 0.963291 -2.8875 1.40846 -0.878963 -2.46925 
1.34167 -0.381163 -2.54187 1.49805 -1.03171 -2.30863 1.37928 -2.9195 -0.0569341 
1.43283 -1.30954 -2.41865 1.26318 -0.559585 -2.6139 1.60466 -1.68089 -2.01441 
1.53008 -1.05708 -2.107 1.43997 -3.46551 -0.791425 1.49041 -3.58492 -1.08596 
0.904901 0.996421 -2.96304 1.36044 -3.07349 -0.156365 1.54309 -2.94259 -0.866789 
1.1845 -1.72858 0.117133 1.10027 -0.238972 -2.72254 1.34122 -3.21331 -0.296722 
1.3198 -3.04526 -0.0377436 1.06803 -1.40327 0.102758 1.28607 -3.41404 -0.523029 
1.31963 -3.32022 -0.416257 1.25876 -3.28505 -0.35488 1.72543 0.527519 0.931521 
1.24058 -3.63957 -0.774077 1.23585 -3.47962 -0.600429 1.18576 -3.51512 -0.645205 
1.15769 -3.39779 -0.537136 1.38177 -3.34694 -0.526356 1.06412 -3.50789 -0.643401 
1.12717 -3.63958 -0.752743 1.15167 -3.55949 -0.689237 0.9832 -3.47141 -0.599617 
0.911131 -3.44182 -0.551032 0.995257 -3.58248 -0.665733 1.01382 -3.40233 -0.570058 
1.22726 -1.3376 -2.49402 1.43036 -1.74697 -2.36265 1.38304 -2.0888 -2.31395 
0.818546 -3.29558 -0.438399 0.81647 -3.38577 -0.465861 1.60348 -3.12381 -1.77545 
1.62893 -2.69423 -1.87263 1.55396 -3.18471 -1.87991 1.48822 -3.28341 -1.90268 
1.47034 -2.73195 -2.12055 1.09625 -3.71189 -0.799641 0.693393 -3.29291 -0.332017 
0.573517 -3.12117 -0.176591 0.577028 -3.20382 -0.194678 0.653665 -3.43926 -0.346659 
0.62116 -3.32722 -0.271586 0.487067 -3.14941 -0.0866968 0.398695 -3.10484 0.0218517 
0.334639 -2.96876 0.123308 0.630926 -3.48035 -0.367259 0.485603 -3.2695 -0.123568 
0.0485333 -2.55286 0.542947 0.159072 -2.77921 0.365153 0.184504 -2.77375 0.339058 
0.273466 -2.84789 0.212523 -0.296307 -1.63024 1.11837 -0.152927 -2.08746 0.85095 
-0.113361 -2.19648 0.801901 -0.0844107 -2.24671 0.763396 -0.453047 -0.975776 1.42991 
-0.454269 -0.940846 1.40727 0.135072 -2.75501 0.32869 0.165723 -2.8221 0.328951 
-0.028809 -2.40619 0.62265 1.63899 -2.22909 -1.64874 1.58757 -2.16507 -1.26271 
1.60673 -2.64744 -1.22905 0.298393 -3.01982 0.148594 0.802873 -3.39226 -1.10113 
0.893766 -3.60741 -1.07438 0.353257 -3.12311 -0.0601666 0.0968188 -2.58778 0.307273 
1.57039 -2.09147 -2.16188 0.525523 1.0676 1.27082 -0.361149 -1.23382 1.15687 
-0.232904 -1.79775 0.960591 -0.405618 -1.12222 1.28225 0.952321 -0.101709 -2.76377 
1.07859 -0.66644 -2.6394 1.04546 -1.11428 -2.52587 -0.37703 -0.712873 1.00874 
1.00445 -1.47402 -2.41214 0.9021 -1.04925 -2.49799 0.99139 -1.79933 -2.30138 
1.11914 -1.88937 -2.33388 -0.103598 -1.22573 0.275964 0.025931 -1.46167 -0.0415499 
0.929255 -1.97851 -2.1931 1.04611 -2.28114 -2.15721 0.995345 -3.81588 -0.925213 
1.15857 -3.9006 -1.12364 0.859046 -2.37962 -1.94697 0.894788 -2.20777 -2.06631 
0.977692 -2.58506 -1.96591 0.830855 -3.19918 -1.34385 0.810333 -3.67647 -0.68761 
0.958043 -3.75613 -1.00983 0.811313 -1.75682 -2.19157 1.30168 -2.25111 -2.27784 
0.876343 -2.84391 -1.69598 0.782901 -2.68808 -1.6573 0.821728 -2.54294 -1.80996 
0.761797 -2.27977 -1.88486 0.705248 -2.84211 -1.38387 0.740453 -2.77411 -1.51603 
0.791128 -2.96409 -1.46214 0.389117 -2.81936 -0.456287 0.701705 -2.59998 -1.57907 
0.633862 -2.78277 -1.25115 0.332973 -2.49161 -0.506504 0.18117 -1.96252 -0.311012 
0.307509 -2.21087 -0.585273 0.484282 -2.53984 -0.963957 0.562416 -2.69295 -1.10513 
-0.156304 -1.77541 0.67967 0.434714 -2.28725 -0.957108 0.387226 -2.2822 -0.800665 
0.267987 -1.87868 -0.609032 0.145555 -1.39533 -0.413976 0.215701 -1.47109 -0.589486 
1.09732 -3.40901 -1.61635 0.982953 -3.11113 -1.66998 1.06092 -2.99142 -1.83949 
0.584685 -2.61619 -1.26476 -0.368396 -1.03167 1.09933 1.46591 -3.68967 -1.64199 
1.41198 -3.43628 -1.84365 -0.68968 0.633191 1.85594 -0.617354 0.169251 1.66268 
-0.557571 -0.327904 1.58938 -0.522155 -0.335225 1.42856 -0.770682 1.60436 1.92287 
-0.666127 0.707835 1.69325 -0.788523 1.60792 2.04093 -0.849881 2.41691 2.12988 
-0.760764 1.21404 2.04583 -0.802409 2.68897 1.7663 -0.846527 2.86497 1.95953 
-0.888206 3.13246 2.15375 -0.902504 3.69288 2.11339 -0.892767 4.00268 2.01253 
-0.863403 4.07559 1.86243 -0.845759 3.44214 1.83955 -0.786875 2.88844 1.65503 
-0.928247 4.40189 2.18478 -0.841714 4.45411 1.77167 -0.814156 3.94159 1.66515 
-0.912428 3.27913 2.30883 1.23673 0.28618 -2.37613 -0.737291 2.64658 1.49059 
-0.696839 2.58025 1.34531 -0.121024 -0.170337 0.0278181 -0.256121 0.522414 0.276562 
1.09265 -2.75085 -1.99092 -0.0758337 -0.0870973 -0.100102 0.0215633 -0.862822 -0.211705 
-0.366546 1.2626 0.47747 0.0948787 -1.44321 -0.254954 -0.759186 3.61601 1.47383 
-0.698694 3.3863 1.2771 -0.705571 3.05838 1.31991 -0.785376 3.35905 1.5898 
-0.490213 2.03376 0.740278 -0.605193 2.79234 1.0172 -0.661092 3.50121 1.16271 
0.888613 -3.10449 -1.52833 -0.399761 1.79964 0.515387 1.44706 0.597878 0.969948 
0.595892 -3.46181 -0.398913 -2.2934 2.05068 1.03549 1.12704 0.557955 0.869738 
1.25154 0.595211 0.937057 0.797043 0.817779 1.16366 1.54205 -1.62385 -1.3985 