# vtk DataFile Version 3.0
vtk output
ASCII
DATASET POLYDATA
POINTS 853 float
14.0921 0.83484 30.6336 13.9472 -0.115964 30.4724 13.8695 -1.13924 30.2378 
13.8352 -2.24124 29.8698 13.8178 -3.47637 29.3556 13.8503 -4.75689 28.7 
13.9035 -5.99874 27.8946 13.9904 -7.25357 26.8983 14.1437 -8.43476 25.7974 
14.315 -9.47272 24.7262 14.4918 -10.4667 23.6478 14.6463 -11.3905 22.6233 
14.7515 -12.2546 21.6391 14.7484 -13.062 20.6707 14.633 -13.7713 19.7754 
14.4828 -14.4209 18.8283 14.1903 -14.9762 17.8062 13.751 -15.4463 16.6887 
13.2028 -15.8079 15.4411 12.4965 -16.0538 14.171 11.7379 -16.1439 13.0182 
11.1186 -15.9824 12.0116 10.7942 -15.5147 11.2648 10.8229 -14.7249 10.8346 
11.158 -13.6423 10.6916 11.5982 -12.4641 10.9036 12.1001 -11.3588 11.4646 
12.7159 -10.393 12.2932 13.2719 -9.60686 13.2983 13.4548 -9.00779 14.3927 
13.2415 -8.6208 15.5083 12.9257 -8.46177 16.5735 12.7143 -8.40136 17.5392 
12.5577 -8.2801 18.47 12.3608 -7.99427 19.426 12.0937 -7.47378 20.4023 
11.7951 -6.73876 21.3883 11.51 -5.75298 22.4175 11.3225 -4.60319 23.4339 
11.2477 -3.35239 24.4108 11.3418 -2.00401 25.2861 11.6144 -0.68798 25.9741 
11.9715 0.537464 26.4662 12.3057 1.61338 26.8249 12.5911 2.58673 27.1761 
12.8612 3.54946 27.4896 13.1021 4.45206 27.7786 13.352 5.2251 28.0893 
13.6989 5.86602 28.3945 14.1976 6.38185 28.6776 14.7846 6.73192 28.9526 
15.3788 6.86423 29.2451 15.8728 6.75835 29.5234 16.1206 6.42937 29.7718 
16.0962 5.8919 30.0175 15.8305 5.15632 30.2757 15.4273 4.30111 30.4977 
15 3.43096 30.6176 14.6002 2.56764 30.7044 14.2938 1.71412 30.7317 
14.0627 1.33036 30.2684 13.946 0.717348 30.2828 13.8129 -0.0351744 29.9712 
13.7928 -0.644468 29.944 13.7143 -1.57007 29.5874 13.7022 -2.36852 29.3775 
13.6245 -3.25999 28.8406 13.6807 -4.03565 28.5734 13.6804 -5.08132 27.8773 
13.7696 -5.97502 27.3321 13.7679 -6.78728 26.5468 13.8746 -7.55429 25.8868 
14.0195 -8.50508 24.9375 14.1862 -9.23483 24.2635 14.2471 -9.88271 23.4164 
14.3927 -10.5213 22.849 14.4644 -11.2373 21.9457 14.474 -11.8233 21.2073 
14.4549 -12.3753 20.4152 14.4046 -12.85 19.9515 14.2513 -13.3888 19.1712 
14.0262 -13.7443 18.5748 13.746 -14.093 17.7634 13.4706 -14.4283 17.1611 
13.0318 -14.7686 16.2093 12.6622 -14.8814 15.5004 12.2518 -15.1602 14.5941 
11.8232 -15.229 13.7552 11.3556 -15.3564 12.8798 11.1366 -15.1132 12.3652 
10.9037 -15.0392 11.8054 10.874 -14.6517 11.4615 11.0253 -14.0299 11.2755 
11.2403 -13.3873 11.2546 11.4331 -12.7654 11.2794 11.6842 -12.1123 11.5364 
11.9504 -11.4572 12.1278 12.1777 -10.9562 12.6341 12.3889 -10.4796 13.3684 
12.6254 -10.0581 14.1075 12.7301 -9.71012 15.0107 12.7629 -9.57368 15.7188 
12.7285 -9.42964 16.5591 12.7521 -9.30185 17.1465 12.7191 -9.08719 18.0534 
12.7044 -9.02847 18.6056 12.5814 -8.61373 19.6212 12.4289 -8.29315 20.219 
12.2134 -7.63539 21.1591 12.024 -7.18435 21.7716 11.7783 -6.17334 22.8161 
11.6222 -5.46729 23.4244 11.5111 -4.38631 24.316 11.4468 -3.62207 24.9002 
11.4904 -2.3191 25.7291 11.6471 -1.51036 26.1637 11.8831 -0.365761 26.6872 
12.0928 0.426257 26.9796 12.2411 1.22592 27.1838 12.5123 1.92863 27.4113 
12.7571 2.78372 27.6273 13.0022 3.31397 27.8683 13.1778 4.02974 28.0135 
13.4611 4.59421 28.1917 13.7337 5.27726 28.369 14.0652 5.68145 28.549 
14.387 6.10043 28.7276 14.6891 6.32931 28.8781 15.0768 6.56198 29.0622 
15.3387 6.53545 29.2215 15.6029 6.53042 29.3706 15.7729 6.36446 29.5339 
15.7759 5.99211 29.7132 15.7291 5.59388 29.9308 15.4743 5.04681 29.9992 
15.334 4.57099 30.1797 14.97 3.84327 30.246 14.7243 3.26019 30.4057 
14.4248 2.60535 30.2951 14.2836 2.0883 30.3995 15.3884 6.10057 29.3621 
15.0948 6.23429 29.1315 15.3138 5.51546 29.6269 14.625 5.7759 28.9422 
15.0038 5.79542 29.2367 14.9226 4.54686 29.788 14.0747 4.93534 28.7483 
14.6722 5.11617 29.2416 14.4306 3.39619 29.8754 13.5312 3.80967 28.5348 
13.6712 0.914186 29.6226 13.9922 2.1949 29.8204 12.6155 1.20858 27.903 
13.0455 2.56202 28.2567 11.2647 -13.5059 11.837 12.0193 -4.27579 25.3682 
12.0028 -2.29924 26.5505 14.2069 4.08901 29.2113 12.3791 -0.10862 27.5151 
11.1119 -14.2468 12.056 11.521 -12.6494 11.9079 13.2605 -3.77493 27.7602 
13.3714 -2.09378 28.6854 13.4373 -0.53629 29.1884 13.9037 -9.7968 22.5385 
13.915 -11.8849 19.8018 11.7714 -6.55774 22.1153 12.245 -6.19852 23.8238 
12.5766 -8.57988 19.0256 11.3308 -2.87592 25.1277 11.4372 -14.2545 13.0965 
11.8435 -11.9244 12.9003 13.3464 -5.51431 26.6667 13.7205 -8.55159 23.887 
12.9188 -9.22034 20.3143 12.9502 -9.97896 18.5504 13.4967 -6.77422 25.7087 
11.6923 -3.11952 25.6727 12.534 -7.86574 22.0629 13.9931 -10.809 21.2552 
13.116 -13.2121 17.2694 13.7357 2.94663 29.1168 12.1633 -6.95698 22.625 
12.8574 -9.40556 19.3186 11.4944 -13.3709 12.5788 11.9288 -13.9906 14.3059 
12.0904 -11.385 14.1096 13.6378 -12.6096 18.6032 12.8171 -10.4355 16.9544 
12.4886 -13.7084 15.873 12.4955 -10.8787 15.5536 12.4142 -3.40629 26.5753 
13.3383 1.81446 28.9647 11.7944 -12.9214 13.6765 11.9457 -5.19575 24.4228 
12.6127 -5.41173 25.4067 12.8323 -10.0525 17.7695 12.7009 -8.49187 21.1776 
12.9135 -7.50673 23.501 13.3718 -10.3698 19.9585 12.7322 -2.3564 27.5463 
13.1791 -11.2596 18.3055 13.3501 -9.50988 21.4284 12.9616 -1.3204 28.2608 
12.8432 -0.433856 28.3087 13.5295 -13.226 18.0134 13.1498 -12.176 17.7589 
13.9523 -12.5153 19.3209 13.4982 -11.6859 19.0915 12.2516 -14.2538 15.1062 
12.1856 -13.1623 15.0974 12.4242 -12.2709 15.918 12.9004 -13.8407 16.6373 
12.6727 -12.9022 16.5623 12.7749 -11.6853 16.7681 12.3557 -10.6731 14.7602 
12.2038 -11.7646 14.9944 12.6767 -10.3657 16.2276 13.2313 -8.67584 22.5149 
13.448 -7.41372 24.729 12.9833 -6.40289 24.9371 12.9778 -11.187 17.5012 
12.7878 -4.50276 26.4863 13.8629 -11.211 20.3536 13.5217 -10.2433 20.7225 
12.3396 -1.26785 27.3262 13.0359 0.581027 28.6617 12.0099 -12.5894 14.5081 
13.2974 -10.7701 19.2742 14.1299 -14.3401 18.2729 13.9069 -13.9912 18.1427 
13.9376 -14.4619 17.8266 11.8872 -6.87077 21.9229 12.0869 -7.12363 22.1354 
11.921 -6.73772 22.3207 13.6373 -14.2623 17.4991 13.8191 -14.7399 17.4492 
13.6107 -14.9362 16.9761 13.972 -15.2185 17.2642 14.2628 -14.1029 18.7049 
14.3654 -14.7148 18.3264 11.761 -6.35539 22.4539 11.6311 -5.98241 22.6308 
11.6549 -6.24169 22.1988 14.3452 -13.1403 19.5694 14.4576 -13.6114 19.462 
14.5278 -13.2934 19.9049 14.6874 -13.4234 20.2253 14.591 -13.0007 20.2813 
13.4543 -13.7435 17.5378 13.2903 -13.8747 17.2385 14.3721 -13.8822 19.0622 
14.137 -13.5556 18.877 13.9666 -13.055 18.9076 13.8513 -13.2075 18.6343 
14.5683 -14.1049 19.3108 12.7158 -9.06373 18.37 12.8144 -9.52187 18.2846 
12.8171 -9.44031 18.5925 13.6376 -13.6595 17.9017 13.3474 -13.2221 17.6717 
12.1008 -15.6795 13.9312 11.799 -15.719 13.4366 12.1155 -16.1236 13.5764 
12.6424 -8.78855 18.8054 12.5539 -8.44816 18.7945 12.6271 -8.69288 18.5205 
11.3103 -13.8363 12.3518 11.3628 -13.4571 12.1584 11.2032 -13.82 11.9432 
11.4969 -15.733 12.937 11.5621 -15.2763 13.2757 12.0435 -15.1929 14.1813 
12.3739 -15.6222 14.4092 11.251 -15.6869 12.506 11.395 -16.1006 12.5001 
13.1399 -15.2932 15.8992 13.4998 -15.6461 16.0814 13.3724 -15.1361 16.4229 
13.2646 -14.6302 16.6948 12.9978 -13.5648 16.945 13.1453 -14.1112 16.881 
12.6617 -15.5187 14.9457 12.8623 -15.2968 15.459 12.5067 -15.0744 15.0901 
12.8401 -14.8505 15.8169 12.2489 -10.9638 14.4701 12.4327 -10.3809 14.4625 
12.3291 -10.6387 14.1021 12.4243 -14.5725 15.2986 12.2302 -14.6811 14.8505 
12.8586 -15.9448 14.794 11.9533 -6.20796 23.2099 11.8806 -5.82222 23.5823 
11.7102 -5.87978 23.0818 12.1966 -13.7709 15.1026 12.3559 -14.0054 15.4498 
12.31 -13.3979 15.4896 13.9347 -12.2087 19.5719 14.1724 -12.6788 19.6161 
14.1973 -12.3991 19.907 13.2113 -7.42896 24.1795 13.1936 -6.92467 24.7428 
12.9122 -6.90546 24.2175 14.7067 -11.8276 22.1305 14.5843 -11.3573 22.2624 
14.6242 -11.7396 21.8212 14.2155 -9.54545 23.8495 14.0161 -8.91616 24.1693 
14.0239 -9.28273 23.6268 14.5228 -10.9267 22.7514 14.4138 -10.8129 22.4387 
14.6405 -12.4148 21.0084 14.7728 -12.6683 21.1514 14.6371 -12.0655 21.4349 
14.4587 -10.5376 23.1877 14.5743 -10.9425 23.1214 12.6314 -8.18689 21.6504 
12.3538 -7.78254 21.5595 12.4384 -8.05467 21.1326 14.2602 -9.3582 24.4774 
14.334 -9.78347 24.0137 14.4039 -9.9657 24.1964 13.6769 -0.187946 29.6594 
13.7452 0.345109 29.8088 13.532 0.225882 29.3971 14.3761 -10.1358 23.534 
14.1863 -8.9627 24.8995 14.1004 -8.88212 24.5742 14.2272 -8.96591 25.2582 
14.1078 -8.50139 25.375 14.09 -9.76984 23.0945 14.2133 -10.2415 22.7083 
14.3164 -10.2134 23.121 13.6782 -0.634222 29.6495 13.5974 -1.13522 29.393 
13.7471 -1.04557 29.7688 13.0694 -2.28699 28.0927 13.1465 -1.62779 28.4494 
12.8566 -1.79603 27.9405 13.8673 -8.43934 24.4854 13.6163 -9.66239 21.9699 
13.6858 -10.1483 21.3966 13.9446 -10.3442 21.8211 14.4856 -11.5657 21.5545 
14.213 -12.1492 20.1356 14.4572 -12.6246 20.2162 14.2497 -11.3321 21.2142 
14.2538 -11.0311 21.6353 14.2046 -10.5669 22.183 14.6078 -12.6683 20.5708 
14.471 -12.1435 20.7762 12.1083 -7.38672 21.5139 12.2385 -7.4951 21.8826 
12.4947 -7.22055 23.0127 12.3688 -7.43511 22.39 12.723 -7.77593 22.7112 
11.7528 -6.61606 21.8129 11.906 -7.00359 21.5714 12.0068 -7.22717 21.217 
12.3189 -7.96735 20.6856 12.134 -7.55113 20.7741 12.2555 -7.89262 20.2772 
13.6893 -7.50661 25.3145 13.6755 -7.16306 25.7674 13.4496 -7.03753 25.2407 
12.6425 -8.70093 20.2564 12.5236 -8.49138 19.8737 12.7021 -8.87177 19.8951 
13.7973 -9.16068 23.1996 12.9552 -8.61964 21.814 13.0172 -8.97023 21.3158 
13.2929 -9.10256 21.9589 14.0297 -7.97506 25.8984 13.9341 -8.01787 25.4016 
13.9604 -11.0504 20.8272 14.2046 -11.5497 20.8229 11.5293 -5.57943 22.9444 
10.846 -15.2836 11.5654 10.8727 -14.8239 11.641 10.8104 -15.0327 11.3415 
11.3674 -3.24785 24.9915 11.5543 -3.42923 25.2465 11.4577 -2.98642 25.3519 
10.9322 -14.3661 11.3774 10.9196 -14.3322 11.0303 10.8377 -14.7146 11.1635 
10.7663 -15.1594 11.0126 10.9627 -15.475 11.8617 10.9157 -15.7879 11.5936 
11.3961 -2.57949 25.4209 11.3959 -2.16679 25.5261 11.3082 -2.54282 25.1584 
10.9602 -14.4441 11.7057 11.0541 -14.1063 11.6504 11.1011 -15.5028 12.217 
[...]
POINT_DATA 853
VECTORS velocity double
0.686954 -3.63913 -0.481353 0.923302 -3.59021 -0.631471 1.0949 -3.41463 -0.585645 
1.22616 -3.15971 -0.364997 1.32443 -2.81606 0.00393445 1.33979 -2.40358 0.390768 
1.22108 -1.92684 0.641191 0.931586 -1.36609 0.722336 0.534071 -0.814403 0.703485 
0.1492 -0.372039 0.758186 -0.201919 -0.0412283 0.985207 -0.466404 0.139513 1.29554 
-0.610249 0.170627 1.50314 -0.620748 0.0787984 1.48239 -0.510774 -0.0794318 1.24815 
-0.293707 -0.213647 0.869727 0.0291917 -0.214972 0.498277 0.50292 -0.0527117 0.263747 
1.15108 0.203641 0.251569 1.89302 0.316186 0.404083 2.47533 0.180373 0.558265 
2.67832 0.0155655 0.641882 2.46051 0.0903854 0.704237 1.83234 0.536375 0.819925 
0.695051 1.34275 0.963905 -0.738356 2.14947 1.01442 -2.13631 2.58009 0.889399 
-3.25132 2.56481 0.624807 -3.83224 2.36325 0.357884 -3.98523 2.39809 0.143977 
-3.90881 2.83412 -0.0760916 -3.61002 3.42644 -0.309139 -3.19629 3.88551 -0.517272 
-2.74442 4.17517 -0.743622 -2.2322 4.30055 -1.07592 -1.62092 4.23818 -1.57916 
-0.897538 3.92993 -2.18355 -0.103718 3.3272 -2.77217 0.573047 2.44219 -3.10266 
0.972433 1.37063 -3.10396 1.03045 0.226042 -2.91227 0.904251 -0.911909 -2.64288 
0.753536 -1.90729 -2.31617 0.613853 -2.60151 -1.95993 0.476587 -3.00355 -1.59413 
0.292459 -2.97607 -1.20991 0.0943706 -2.44909 -0.831404 -0.0884839 -1.53764 -0.442662 
-0.280582 -0.316228 0.0213972 -0.498163 1.17968 0.60572 -0.708325 2.67979 1.24058 
-0.887867 3.81006 1.8405 -1.01364 4.27554 2.29052 -1.07843 3.94568 2.50798 
-1.08502 2.84464 2.48943 -0.987475 1.05442 2.18111 -0.737263 -0.872175 1.59963 
-0.372279 -2.31475 0.919014 0.0309472 -3.15468 0.2995 0.390724 -3.52014 -0.166307 
0.613593 -3.86099 -0.490981 0.795819 -3.8462 -0.648519 1.00831 -3.8479 -0.836492 
1.10139 -3.68615 -0.802274 1.24668 -3.45727 -0.742872 1.31707 -3.18451 -0.534778 
1.40258 -2.83857 -0.372057 1.40142 -2.54543 -0.0838874 1.3492 -2.05593 0.129583 
1.19984 -1.66068 0.331069 0.973605 -1.15538 0.337919 0.703975 -0.755962 0.39831 
0.317189 -0.249059 0.465812 0.0415227 0.0178289 0.607177 -0.255768 0.36803 0.777066 
-0.438028 0.447956 1.01641 -0.66602 0.62262 1.28467 -0.782085 0.672144 1.4341 
-0.82858 0.667496 1.44589 -0.771495 0.519327 1.38945 -0.655166 0.393356 1.17635 
-0.51663 0.324917 0.974284 -0.290084 0.315054 0.732946 -0.0131644 0.289143 0.573714 
0.450092 0.38308 0.488673 0.798297 0.502243 0.554909 1.36194 0.542621 0.644515 
1.77916 0.546468 0.780456 2.18838 0.416949 0.835443 2.13471 0.46725 0.913044 
2.14784 0.426795 0.896395 1.82116 0.635908 0.948997 1.175 1.07374 1.04314 
0.413016 1.54645 1.11866 -0.357435 1.95535 1.13654 -1.19766 2.28855 1.12047 
-2.03068 2.42982 1.07315 -2.6151 2.42585 0.966303 -3.06597 2.33076 0.8321 
-3.35719 2.30257 0.653677 -3.40882 2.42677 0.462423 -3.28393 2.62852 0.340554 
-3.0686 2.96282 0.180175 -2.91636 3.22223 0.0555846 -2.63202 3.5757 -0.146191 
-2.39425 3.65839 -0.21228 -1.98422 3.79875 -0.545532 -1.68215 3.78916 -0.820254 
-1.12395 3.61081 -1.34361 -0.699595 3.35684 -1.67357 0.0533369 2.74272 -2.24599 
0.484121 2.26977 -2.52896 0.986124 1.39322 -2.71545 1.19576 0.750104 -2.72688 
1.2609 -0.297212 -2.6541 1.19238 -0.979859 -2.56671 1.05357 -1.90399 -2.38429 
0.944049 -2.4811 -2.20566 0.813026 -2.87367 -2.00073 0.686384 -3.22378 -1.73938 
0.497221 -3.34152 -1.40825 0.351171 -3.312 -1.11317 0.153838 -2.88907 -0.804829 
-0.0512345 -2.27513 -0.437071 -0.260497 -1.19839 -0.0339604 -0.439693 -0.21707 0.375907 
-0.590292 0.93887 0.778611 -0.706973 1.79927 1.12246 -0.829906 2.81645 1.53307 
-0.916104 3.15901 1.80888 -0.984089 3.51849 2.05921 -1.03409 3.42594 2.22881 
-1.04964 2.69073 2.2553 -1.02896 1.81604 2.20819 -0.91453 0.419545 1.88494 
-0.787818 -0.585554 1.63213 -0.491396 -2.00523 1.05882 -0.23055 -2.76264 0.648703 
0.0971902 -3.42021 0.143634 0.308169 -3.63079 -0.116495 -0.96013 2.39431 1.88083 
-0.864091 2.22962 1.56981 -0.934086 1.12585 1.82642 -0.69536 0.674243 1.04713 
-0.846159 1.24898 1.49637 -0.665388 -1.12943 1.25652 -0.377898 -1.42896 0.330833 
-0.670014 -0.475365 1.07571 -0.158269 -3.0107 0.414569 0.0919764 -3.12891 -0.470974 
0.883778 -4.13972 -0.924204 0.407806 -3.93042 -0.371434 0.946045 -3.61095 -1.75152 
0.570695 -3.8008 -1.19225 0.542615 1.45061 1.22157 1.32544 0.0532659 -2.07806 
1.44984 -1.4087 -2.21569 -0.263299 -2.50853 0.346601 1.18425 -3.00448 -2.05278 
1.38623 0.951087 1.12365 -0.539205 1.96957 1.26268 1.49913 -2.2894 -0.730494 
1.41759 -3.22875 -1.02248 1.23029 -3.86562 -1.18903 -0.546557 1.08207 0.684575 
-1.07329 1.33439 1.30453 -0.402427 3.33669 -2.17772 0.497192 1.53918 -1.6662 
-2.33002 3.9552 -0.565046 1.17843 0.499376 -2.84441 1.21518 0.954937 1.16292 
-1.48239 2.09061 1.30277 1.26073 -1.28359 -0.346467 0.00938002 0.574061 0.200527 
-1.50617 3.05742 0.0132312 -2.02877 2.99424 0.401855 0.844314 -0.547578 -0.108875 
1.38088 -0.236418 -2.45186 -0.629236 2.67708 -0.906111 -0.925734 1.3535 1.1237 
-0.616132 0.991503 0.880066 0.271615 -3.77122 -0.443145 -0.199195 2.60593 -1.59037 
-1.92666 3.30169 0.0710051 0.288241 1.48768 1.32244 0.617927 0.996079 1.09253 
-2.01127 1.97441 1.19162 -0.957545 1.16499 1.12688 -2.2969 2.53217 0.615101 
-0.0279741 0.91394 0.863111 -2.29932 2.09342 0.892363 1.53739 -1.3701 -1.73651 
0.747212 -4.17981 -1.0617 -0.35242 1.52589 1.37218 0.935824 1.09562 -2.11104 
1.14722 -0.119267 -1.26971 -2.26047 2.90748 0.417341 -1.1305 3.02334 -0.506397 
0.0639897 1.3882 -0.685541 -1.42015 2.38764 0.767744 1.52414 -2.50875 -1.59896 
-1.5418 2.15675 0.921179 -0.979757 2.13266 0.382958 1.41727 -3.32596 -1.53631 
1.30904 -3.60728 -1.67654 -0.68928 0.848565 0.959257 -1.17051 1.59455 0.999513 
-0.945691 1.0253 1.27513 -1.2496 1.74259 1.13522 0.583171 0.799054 0.851401 
-0.298193 1.22467 1.13297 -1.09863 1.53883 1.06951 -0.149401 0.737044 0.737308 
-0.690206 1.23182 0.942726 -1.51301 1.85607 0.948579 -2.62441 2.12367 0.906051 
-1.56021 1.75446 1.17878 -2.54349 2.41523 0.639217 -0.505993 1.75993 -0.0615584 
0.468428 0.190324 -0.189705 0.778241 0.210461 -0.80201 -1.72114 2.18856 0.849825 
1.45045 -1.19812 -1.14943 -1.11836 1.58524 1.20464 -1.18093 2.09003 0.786411 
1.38415 -2.5288 -2.05053 1.11108 -4.02879 -1.49376 -0.761643 1.51055 1.29918 
-1.51295 2.34578 0.870137 -0.267458 0.00659398 0.762749 -0.383949 0.276033 0.825122 
-0.15413 0.0662465 0.643864 -0.565255 3.37835 -1.93922 -0.483753 3.03514 -1.61941 
-0.315992 3.0403 -1.93081 -0.167626 0.286382 0.651534 0.0333439 0.0265591 0.511404 
0.241447 0.0780346 0.415949 0.244046 -0.151681 0.357998 -0.393607 0.0309931 0.92187 
-0.14628 -0.23733 0.67258 -0.174876 3.06965 -2.23906 -0.0123129 3.02126 -2.49812 
-0.30496 3.38403 -2.43673 -0.718808 0.444162 1.29555 -0.572365 0.134517 1.20619 
-0.645884 0.211209 1.34732 -0.580353 0.00419315 1.39104 -0.688524 0.276601 1.43508 
-0.402402 0.602641 0.790081 -0.280463 0.593456 0.730884 -0.485136 0.0709404 1.0584 
-0.597804 0.367388 1.08131 -0.781119 0.737126 1.16157 -0.724371 0.706432 1.0828 
-0.41494 -0.156699 1.06833 -2.494 3.62545 -0.178195 -2.33128 3.30334 0.123339 
-2.23614 3.36573 0.0723054 -0.491868 0.569633 0.859041 -0.661142 0.919108 0.912035 
1.91741 0.409968 0.586129 2.16634 0.362651 0.654416 2.22058 0.271229 0.488582 
-2.38177 3.82388 -0.394375 -2.50208 4.06766 -0.653578 -2.56667 3.89429 -0.449451 
0.882901 1.22118 1.23574 0.447247 1.47045 1.27204 0.911408 1.23774 1.19292 
2.3678 0.286079 0.705058 2.00291 0.497359 0.829785 1.56984 0.558086 0.716958 
1.65289 0.418261 0.512461 2.46849 0.224964 0.739195 2.63132 0.0822414 0.608414 
0.786923 0.253985 0.352692 0.805764 0.0735015 0.227494 0.510961 0.162367 0.357396 
0.214216 0.315746 0.503358 -0.369962 0.834894 0.798282 -0.07812 0.540885 0.655464 
1.33501 0.390209 0.438071 0.995051 0.363147 0.417284 1.08111 0.508613 0.568698 
0.645285 0.445545 0.511176 -2.39834 2.05162 1.03522 -2.96654 2.21319 0.802608 
-2.79185 2.17812 0.924367 0.718129 0.65235 0.703333 0.968789 0.676591 0.761665 
1.52664 0.293815 0.319093 0.238327 2.272 -2.01347 0.488803 1.96657 -2.14579 
0.244874 2.54587 -2.37459 0.216635 0.984956 0.996199 0.295834 0.847564 0.857465 
-0.167867 1.08827 1.01011 -1.01472 1.17693 1.30764 -0.862345 0.785526 1.33383 
-0.909168 0.885356 1.38053 0.308648 0.712039 -0.432645 0.590139 0.292959 -0.5195 
0.447778 0.843747 -0.821696 -0.55452 0.172682 1.4225 -0.566209 0.363553 1.30634 
-0.641616 0.389136 1.41508 -0.105339 0.200165 0.674699 0.0480177 0.202009 0.455875 
-0.154492 0.479827 0.533258 -0.455192 0.302257 1.1567 -0.553244 0.561396 1.13175 
-0.711335 0.369682 1.50384 -0.631465 0.136113 1.52331 -0.686768 0.391083 1.47855 
-0.335823 0.218752 1.01499 -0.349379 0.0701011 1.14348 -0.873276 2.8452 -0.700066 
-0.893058 3.18692 -1.11966 -1.15377 3.35744 -0.933693 0.0910109 -0.172237 0.684663 
-0.0718075 -0.00720182 0.776967 -0.029727 -0.193953 0.848341 1.09568 -3.91124 -0.978949 
0.973857 -3.9966 -0.903286 1.07706 -4.06759 -1.11667 -0.227984 0.172799 0.876394 
0.246063 -0.341926 0.628735 0.167902 -0.0903529 0.527137 0.337629 -0.578789 0.712386 
0.42636 -0.55419 0.593503 -0.355157 0.662933 0.709536 -0.487315 0.697593 0.907206 
-0.355507 0.419779 0.899402 1.15798 -3.77824 -0.940293 1.2532 -3.64693 -0.965407 
1.17526 -3.60709 -0.805018 1.49173 -2.91921 -1.2921 1.42506 -3.32001 -1.33446 
1.47333 -2.97331 -1.57329 0.205249 0.115209 0.305763 -0.757756 1.61587 0.552563 
-0.948739 1.71968 0.797128 -0.783576 1.28448 0.932314 -0.734144 0.647942 1.38046 
-0.939592 0.973426 1.39368 -0.797464 0.573893 1.43145 -0.862645 1.00953 1.31366 
-0.780835 0.952951 1.22259 -0.648081 0.88205 1.0431 -0.730444 0.388758 1.47562 
-0.815226 0.669253 1.46133 -0.882178 3.4711 -1.52935 -0.6777 3.07316 -1.32886 
-0.071894 2.05105 -1.16413 -0.402418 2.60444 -1.21815 -0.308432 2.08418 -0.772934 
-0.597714 3.60657 -2.21245 -0.801918 3.63698 -1.89943 -1.05938 3.81241 -1.74047 
-1.42064 3.73944 -1.08672 -1.36831 3.95093 -1.48003 -1.68315 4.03717 -1.19156 
0.593329 -0.324902 0.12459 0.765431 -0.628997 0.145524 0.683867 -0.187618 -0.186825 
-1.61192 3.47118 -0.440517 -1.86159 3.80003 -0.649858 -1.77941 3.50905 -0.314619 
-0.286337 0.88732 0.404798 -0.814151 2.41825 -0.264321 -1.05183 2.58586 -0.0560973 
-0.762582 1.98285 0.158705 0.627504 -0.812749 0.580141 0.511614 -0.48001 0.411287 
-1.01901 1.4438 1.19346 -0.928802 1.08028 1.35462 0.22363 2.80096 -2.68997 
2.32911 0.257254 0.802536 1.97733 0.537626 0.933486 2.13897 0.37732 0.837009 
1.18947 0.661571 -2.81184 1.29349 0.312127 -2.59263 1.27262 0.203809 -2.68796 
1.54001 0.830746 0.998508 1.48396 0.835212 0.938775 1.86051 0.570268 0.883552 
2.20281 0.263811 0.753952 2.44209 0.205954 0.778596 2.61804 0.0117141 0.669252 
1.21988 0.11721 -2.75833 1.15925 -0.0468709 -2.7817 1.11973 0.446059 -2.90138 
1.62037 0.795272 1.03492 1.25975 1.03239 1.09731 2.42075 0.25368 0.791171 
2.17312 0.429881 0.899807 1.02238 1.15134 0.993562 1.33202 0.903947 0.89622 
0.460667 1.51321 1.17461 0.780873 1.32518 1.08055 0.87293 1.27268 1.13967 
1.83989 0.655105 1.00403 2.17795 0.43535 0.880858 0.54789 1.46034 1.05115 
0.04973 1.74862 1.13244 0.0817437 1.73277 1.06849 -0.0152441 1.77902 1.00665 
-0.494028 2.03052 1.08223 -1.62103 2.43885 1.03073 -1.45557 2.42338 0.975428 
-1.05172 2.26583 1.0686 -0.766553 2.13169 1.14292 0.108827 1.67254 1.25796 
0.000719067 1.75839 1.19957 0.357221 -3.77376 -0.222663 0.54437 -3.94696 -0.470292 
0.45361 -3.77091 -0.305117 1.31213 0.967245 1.16303 1.79715 0.690138 1.03142 
1.76198 0.697553 1.03601 -0.446879 1.97655 1.19249 -0.972736 2.1767 1.19126 
-2.74812 2.62036 0.765938 -2.1781 2.53134 0.963363 -2.65822 2.54782 0.870995 
-2.39584 2.43987 1.01359 -2.91582 2.49576 0.829873 -2.81021 2.38786 0.920763 
-3.28701 2.45106 0.697258 0.00026209 -3.26061 -0.0575262 -0.0817642 -2.89 -0.0590497 
0.182984 -3.51092 -0.457307 -3.61254 2.45893 0.484096 -3.53823 2.38894 0.584292 
-1.58033 2.37496 1.11277 -1.73953 2.27969 1.19929 -1.33053 2.24155 1.21363 
-0.96479 2.04681 1.31115 0.668985 -4.11695 -0.701937 0.720013 -4.01871 -0.667252 
-0.172006 1.74916 1.32204 1.05623 -2.69089 -2.16291 1.0845 -3.33286 -1.93384 
0.97712 -3.02201 -2.02921 -2.73255 3.87538 -0.431337 -2.47741 3.25854 0.134291 
-2.13659 2.95722 0.413934 -2.97915 4.05887 -0.631834 -2.91384 3.75141 -0.342771 
-3.09804 3.54783 -0.224043 -2.78956 3.42839 -0.058942 -2.32443 4.12443 -0.783928 
-2.16224 3.90105 -0.569538 -2.09902 4.03453 -0.790888 -3.0193 3.08966 0.114509 
-2.71473 2.77707 0.388777 -2.63269 2.88507 0.34457 -1.9378 4.0645 -0.962876 
-1.9336 4.29439 -1.31072 -1.28034 4.122 -1.87212 -0.958008 1.82554 1.87234 
-1.00717 2.00829 2.07073 -1.00916 2.46785 2.06894 -0.792425 2.00374 1.35423 
-0.846841 2.57167 1.54901 -0.77751 2.36521 1.34981 -0.556292 0.0807601 0.671964 
-0.632873 0.833097 0.877823 -0.535493 0.480039 0.623038 -0.50429 3.67267 -2.49221 
-2.502 4.25647 -0.885928 -1.15991 1.84356 1.02274 -1.2986 2.23888 0.790072 
-1.2868 2.03883 0.989072 -0.638299 1.29181 0.917973 -0.720356 1.37905 1.12673 
-3.77883 2.45965 0.284801 -3.76462 2.36948 0.388639 -3.43177 2.3455 0.545379 
-2.59562 2.18106 1.02632 -2.36194 2.23222 1.10664 -1.77568 2.01773 1.27283 
-0.327338 -2.02868 0.343434 -0.493725 -1.54176 0.736625 -0.532485 -0.998946 0.722533 
-3.68575 2.35583 0.486114 -3.94483 2.33173 0.247293 -3.97299 2.57309 0.0391923 
-3.73338 2.60543 0.192955 -3.23962 2.30301 0.743062 -3.3327 3.15282 -0.0222448 
-3.26477 3.36373 -0.141161 -3.4058 3.66967 -0.407432 -3.20691 2.82999 0.226409 
-3.52264 2.97851 0.0266367 -3.78803 3.13642 -0.19768 -3.6469 2.76717 0.118037 
-0.907387 1.78276 1.69128 -0.884277 1.15911 1.63037 -3.34355 2.50997 0.410846 
-0.785522 0.521337 1.3351 -0.785 0.97652 1.30826 -0.683417 0.0463545 1.04747 
-1.87063 1.98365 0.934953 -2.09006 2.1824 0.819367 -2.42379 2.24392 0.766295 
0.0620121 -2.65693 -0.63433 0.13138 -2.99256 -0.676237 -0.017651 -2.63107 -0.402157 
-0.859423 1.73004 1.53584 -0.797763 1.54393 1.34607 -2.49283 2.10733 0.900122 
-2.91341 2.29432 0.683187 -3.00607 2.26089 0.712183 -1.96751 3.59445 -0.27889 
-1.72495 3.20421 0.0542749 0.271498 -3.33706 -0.871852 0.246867 -3.13096 -0.950423 
0.268881 2.90778 -2.98595 0.51727 2.41561 -2.84163 -2.1903 3.51842 -0.0898114 
-2.17044 3.70305 -0.311955 0.956141 -1.26487 0.524305 0.85007 -0.982266 0.393951 
0.808833 -1.06769 0.576788 0.733376 -1.07601 0.714864 1.22398 -0.732129 -0.823642 
0.981559 0.0191755 -1.02753 1.05341 -0.529119 -0.609215 1.0921 -1.54034 0.539801 
1.09959 -1.41406 0.335731 1.20895 -1.79365 0.48863 1.10044 -1.6602 0.701584 
1.13881 0.606518 -2.08414 1.15644 0.802278 -2.43389 0.968671 1.25755 -2.42179 
1.34643 -2.24481 0.292415 1.28957 -2.01269 0.408923 1.30013 -2.17424 0.536373 
1.45068 -2.69056 -0.522924 1.43895 -2.46726 -0.307307 1.40759 -2.68644 -0.227073 
1.34551 -2.61471 0.21157 1.37097 -2.68181 -0.0112483 1.37207 -2.48267 0.144174 
1.39552 -2.32894 -0.00232757 1.27959 -1.83249 0.23142 1.35858 -3.23454 -0.728223 
1.41976 -2.9903 -0.675339 1.36407 -3.02999 -0.461986 1.42562 -1.79535 -0.505344 
1.34349 -1.79924 -0.101247 1.42203 -2.13763 -0.246572 1.09534 1.06797 -2.91014 
0.98148 1.46364 -2.94836 1.12472 1.01439 -2.72427 0.728229 1.67903 -2.32508 
0.755901 1.86455 -2.66328 -0.911304 2.30774 1.71682 0.79119 1.93265 -2.92971 
0.810544 1.92986 -3.13726 1.09844 0.861707 -2.96078 1.35325 -0.781254 -2.47375 
1.33023 -0.28953 -2.57023 1.43636 -0.834789 -2.31836 1.36417 -2.84423 -0.193322 
1.34032 -1.23629 -2.4057 1.2354 -0.581691 -2.62306 1.51535 -1.42185 -2.00696 
1.47674 -0.782158 -2.13266 1.32489 -3.43439 -0.887056 1.34168 -3.56675 -1.14622 
1.03804 0.813295 -3.02532 1.31901 -3.01712 -0.302379 1.48415 -2.79329 -0.91697 
1.23418 -1.56716 0.0796176 1.10469 -0.382573 -2.73896 1.27311 -3.17862 -0.441636 
1.27995 -3.00139 -0.197381 1.10149 -1.21694 0.0699144 1.17157 -3.44197 -0.646012 
1.22894 -3.31094 -0.553568 1.16495 -3.29771 -0.496697 1.81515 0.637923 0.978749 
1.06159 -3.77221 -0.831808 1.09646 -3.55877 -0.700738 1.02315 -3.64539 -0.718176 
1.01512 -3.51006 -0.629509 1.29128 -3.31629 -0.651013 0.853854 -3.73633 -0.650595 
0.903646 -3.86418 -0.752203 0.964161 -3.73412 -0.731522 0.743525 -3.74547 -0.563845 
0.640837 -3.7429 -0.471914 0.721697 -3.8756 -0.59505 0.811854 -3.63492 -0.579467 
1.13091 -1.47464 -2.47855 1.30239 -1.72531 -2.33679 1.22994 -2.15715 -2.28071 
0.547003 -3.60404 -0.343354 0.509771 -3.69785 -0.333649 1.42667 -3.04198 -1.7584 
1.47629 -2.53838 -1.84848 1.35598 -3.18058 -1.85212 1.27261 -3.37112 -1.86419 
1.28054 -2.78148 -2.08015 0.829766 -3.98383 -0.748261 0.345845 -3.58314 -0.136919 
0.218621 -3.37531 0.0484168 0.190212 -3.43363 0.0620209 0.20992 -3.64134 -0.050706 
0.209385 -3.55071 0.00106248 0.0618085 -3.29376 0.22683 -0.0705132 -3.12011 0.395152 
-0.117892 -2.96435 0.496767 0.140577 -3.60447 -0.0277703 -0.00137235 -3.31372 0.245064 
-0.447324 -2.12802 1.02216 -0.348369 -2.46513 0.825866 -0.294422 -2.56694 0.771914 
-0.170933 -2.80614 0.594566 -0.769162 -0.709074 1.62994 -0.660211 -1.29217 1.36789 
-0.610287 -1.51447 1.31303 -0.564886 -1.66885 1.26035 -0.879558 0.0462926 1.91377 
-0.88672 0.100461 1.88738 -0.421976 -2.21629 0.819127 -0.369057 -2.42675 0.805668 
-0.562405 -1.71526 1.13267 1.55162 -1.96797 -1.63785 1.54773 -1.89796 -1.2678 
1.53782 -2.43478 -1.23888 -0.211576 -2.85371 0.577588 0.339855 -3.61153 -0.832542 
0.438552 -3.88007 -0.819059 -0.215121 -2.80725 0.38914 -0.468135 -1.90485 0.798251 
1.43188 -1.94982 -2.13372 0.72361 1.23734 1.27756 -0.828302 -0.202264 1.6431 
-0.733815 -0.868707 1.47102 -0.857945 -0.0836359 1.76921 0.97141 -0.357468 -2.78403 
1.04216 -0.868193 -2.64289 0.971502 -1.39046 -2.5175 -0.811942 0.263269 1.45878 
0.902186 -1.82677 -2.3911 0.834214 -1.43442 -2.48889 0.862823 -2.20312 -2.26626 
0.983398 -2.19356 -2.3018 -0.564027 -0.38507 0.726005 -0.437074 -0.711207 0.393541 
0.782998 -2.45231 -2.14348 0.878302 -2.69971 -2.1046 0.589792 -4.13249 -0.720452 
0.81805 -4.2169 -0.995093 0.653812 -2.92063 -1.85459 0.720319 -2.7257 -1.99651 
0.766996 -3.07745 -1.88226 0.429883 -3.53624 -1.12507 0.337972 -3.90063 -0.398684 
0.520372 -4.05719 -0.773558 0.676268 -2.2843 -2.13862 1.13752 -2.42398 -2.23966 
0.588473 -3.34047 -1.55534 0.492331 -3.18532 -1.50559 0.577681 -3.08213 -1.69016 
0.54908 -2.84669 -1.77803 0.327443 -3.15781 -1.16722 0.40524 -3.19201 -1.33203 
0.4311 -3.35586 -1.26745 -0.158987 -2.4117 -0.0520864 0.394375 -3.05758 -1.4081 
0.223303 -2.95288 -1.00163 -0.185999 -2.01146 -0.109899 -0.307788 -1.31839 0.104771 
-0.175538 -1.72029 -0.203292 0.0292119 -2.36203 -0.649262 0.123825 -2.68622 -0.821867 
-0.671878 -0.831241 1.16756 0.00303639 -2.03907 -0.642635 -0.0712688 -1.92722 -0.455355 
-0.175072 -1.37193 -0.237224 -0.269388 -0.807251 -0.0229265 -0.182167 -0.960501 -0.223639 
0.779656 -3.82405 -1.48015 0.679128 -3.57409 -1.53007 0.805651 -3.44585 -1.73702 
0.187552 -2.75861 -1.01598 -0.825705 -0.00728281 1.56769 1.23214 -3.82159 -1.61092 
1.1747 -3.62448 -1.79017 -1.02162 1.54623 2.22782 -0.982622 1.14073 2.06684 
-0.952774 0.713602 2.02922 -0.925572 0.677566 1.86356 -1.04385 2.25153 2.24216 
-0.997104 1.55324 2.06573 -1.06054 2.29207 2.3496 -1.07473 2.86202 2.39953 
-1.0543 2.02758 2.37548 -1.00798 2.93824 2.08265 -1.0446 3.10723 2.24545 
-1.07339 3.34098 2.40494 -1.05838 3.70153 2.36747 -1.0327 3.88391 2.28628 
-0.997999 3.8948 2.16417 -1.01055 3.45941 2.14198 -0.978789 3.04109 1.98591 
-1.0525 4.20887 2.42731 -0.959368 4.13688 2.0935 -0.951355 3.7501 1.99756 
-1.09063 3.48835 2.53071 1.26211 0.488122 -2.48604 -0.93984 2.83308 1.84271 
-0.899273 2.74827 1.71375 -0.458279 0.396185 0.443984 -0.551376 0.999994 0.695994 
0.879373 -3.1792 -1.91673 -0.386321 0.397549 0.298228 -0.360557 -0.252297 0.194512 
-0.614627 1.58772 0.892816 -0.345814 -0.779604 0.158569 -0.907098 3.47745 1.83007 
-0.851657 3.26962 1.65439 -0.87852 3.06155 1.69174 -0.949743 3.33502 1.9293 
-0.699048 2.20034 1.1495 -0.780273 2.79511 1.4134 -0.80255 3.31276 1.54945 
0.544016 -3.53636 -1.35369 -0.606968 1.96113 0.924473 1.52 0.737673 0.991722 
0.0638593 -3.47467 -0.0235265 -2.22401 2.3201 1.11371 1.11855 0.728449 0.857542 
1.28357 0.756399 0.938118 0.893466 1.00082 1.1519 1.51249 -1.30707 -1.41913 