# vtk DataFile Version 3.0
vtk output
ASCII
DATASET POLYDATA
POINTS 853 float
14.6804 -1.20978 30.3461 14.6461 -2.22112 30.1615 14.6407 -3.21795 30.0063 
14.6505 -4.2149 29.7997 14.6478 -5.26521 29.5104 14.6506 -6.30761 29.061 
14.6177 -7.27387 28.3529 14.545 -8.20107 27.3523 14.4868 -9.05326 26.2369 
14.4473 -9.8258 25.2284 14.4276 -10.6251 24.2982 14.4318 -11.4451 23.4423 
14.4525 -12.2903 22.5596 14.4461 -13.1514 21.5517 14.4117 -13.9582 20.4706 
14.4235 -14.6821 19.2516 14.3666 -15.2129 18.0131 14.2451 -15.5606 16.8089 
14.09 -15.7647 15.5976 13.7986 -15.9392 14.41 13.3568 -16.0934 13.3071 
12.8397 -16.0332 12.3093 12.3442 -15.5432 11.5799 11.8828 -14.495 11.2289 
11.3557 -12.9044 11.199 10.8556 -11.2411 11.4142 10.5998 -9.92416 11.8379 
10.686 -8.98237 12.5036 10.9865 -8.29736 13.3885 11.1188 -7.6731 14.3603 
10.9545 -7.04127 15.2937 10.8102 -6.56548 16.165 10.8612 -6.27684 16.9849 
11.0036 -6.01613 17.7877 11.1228 -5.65505 18.5792 11.1831 -5.11421 19.3154 
11.2449 -4.46482 20.0282 11.3555 -3.72443 20.7971 11.5355 -3.02803 21.6647 
11.725 -2.39124 22.6237 11.9295 -1.6968 23.5705 12.2043 -0.990847 24.3869 
12.5227 -0.263189 25.0418 12.8141 0.46037 25.5765 13.0676 1.17493 26.1054 
13.2862 2.01881 26.5999 13.4549 2.97493 27.0642 13.6091 4.00023 27.5626 
13.8142 5.18577 28.1053 14.1176 6.67227 28.7002 14.5042 8.28628 29.3419 
14.9508 9.42101 30.0413 15.3645 9.64116 30.6845 15.5981 8.85616 31.1155 
15.6311 7.08575 31.2814 15.4938 4.9143 31.2551 15.2819 3.18034 31.1177 
15.0709 1.88102 30.898 14.8752 0.785926 30.7146 14.7392 -0.212971 30.5569 
14.6543 -0.826626 29.9183 14.6146 -1.47628 29.8937 14.5899 -2.31043 29.5104 
14.599 -2.86976 29.5414 14.5765 -3.71932 29.2439 14.5729 -4.38051 29.1737 
14.5095 -5.09121 28.7105 14.5341 -5.69124 28.6119 14.4749 -6.45348 27.9991 
14.4714 -7.1107 27.5487 14.3502 -7.63176 26.7418 14.3178 -8.16022 26.1243 
14.2602 -8.80574 25.2494 14.2753 -9.36789 24.6845 14.1763 -9.80582 23.9538 
14.2145 -10.3894 23.5222 14.1562 -10.9932 22.7637 14.0948 -11.539 22.1032 
14.0458 -12.0818 21.3081 14.0271 -12.6461 20.7928 13.9554 -13.2663 19.854 
13.8287 -13.6684 19.1182 13.7076 -14.0282 18.164 13.6115 -14.377 17.479 
13.4505 -14.6592 16.5106 13.2663 -14.7041 15.8579 13.1661 -14.9503 14.9978 
12.9511 -15.0051 14.2194 12.7128 -15.1879 13.3433 12.4266 -14.9182 12.8635 
12.1876 -14.8649 12.2745 11.8987 -14.3548 11.9647 11.5577 -13.4668 11.8534 
11.2333 -12.5366 11.8896 10.9269 -11.671 11.9107 10.6996 -10.8456 12.1309 
10.5635 -10.1517 12.687 10.5329 -9.67412 13.1329 10.5791 -9.26988 13.8136 
10.7163 -8.87559 14.462 10.8373 -8.47994 15.2501 10.9708 -8.25983 15.8798 
11.081 -7.96344 16.6054 11.2085 -7.70966 17.1019 11.3651 -7.31985 17.8706 
11.52 -7.23766 18.4005 11.6464 -6.74794 19.2384 11.6544 -6.422 19.6997 
11.7227 -5.8304 20.3891 11.7432 -5.50158 20.8541 11.8705 -4.78858 21.6124 
11.9269 -4.31288 22.0557 12.0939 -3.71185 22.7989 12.1648 -3.30637 23.3292 
12.2999 -2.5641 24.1335 12.4572 -2.1041 24.5944 12.6496 -1.39188 25.2083 
12.8123 -0.851953 25.5954 12.8912 -0.192692 25.9123 13.1188 0.33299 26.2692 
13.2912 1.09778 26.6483 13.4942 1.55169 27.0298 13.5848 2.34656 27.3208 
13.7747 3.04344 27.6737 13.9153 4.10021 28.0524 14.1156 4.95009 28.4485 
14.2905 6.09944 28.8504 14.4762 6.9926 29.2011 14.7338 8.13608 29.6435 
14.9329 8.3847 29.9991 15.1435 8.68048 30.3383 15.2962 8.33664 30.6346 
15.3367 7.13074 30.8096 15.346 5.90811 30.9608 15.2162 4.43598 30.7902 
15.1743 3.5115 30.8117 15.0056 2.31014 30.5687 14.8948 1.53513 30.543 
14.7736 0.663017 30.1958 14.7237 0.0792865 30.2043 15.0131 7.07377 30.1895 
14.7777 7.1591 29.7445 15.0243 5.36478 30.4025 14.4987 5.4739 29.2308 
14.7612 5.82371 29.8058 14.8734 3.23871 30.2022 14.2199 3.56251 28.6342 
14.6183 4.08571 29.5511 14.6865 1.50991 29.8587 13.9451 1.91751 28.0162 
14.4336 -1.46815 29.0234 14.531 -0.00421748 29.4503 13.4076 -0.775775 26.754 
13.6721 0.514489 27.3914 11.3681 -12.7404 12.5686 12.886 -4.59403 24.1533 
13.0086 -3.384 25.1517 14.4377 2.30434 29.12 13.2939 -1.90015 26.1945 
11.8149 -13.7758 12.7115 10.9515 -11.5923 12.6574 14.1936 -5.3467 27.3078 
14.332 -4.17117 28.1035 14.353 -2.89942 28.4913 13.7139 -9.33124 23.0383 
13.4026 -11.1895 20.6409 11.5741 -4.75979 20.8856 12.6687 -5.68044 22.9836 
11.3838 -6.57249 18.5604 12.0207 -2.57954 23.462 12.084 -13.8111 13.8132 
10.863 -10.8715 13.7093 14.1057 -6.49451 26.4249 13.8328 -8.41674 24.0853 
12.3275 -7.80605 20.3896 12.0414 -8.56929 18.8278 14.0363 -7.31368 25.6324 
12.5926 -3.49445 24.1993 12.3909 -6.69164 21.672 13.5875 -10.1492 21.9946 
12.8653 -12.7504 17.8535 14.2458 0.788011 28.6431 12.2074 -5.79239 21.8385 
12.017 -7.85347 19.3778 11.4997 -12.6312 13.4112 12.2897 -13.5542 15.017 
10.9718 -10.4389 14.8932 13.186 -12.0127 19.3301 11.7142 -9.25115 17.386 
12.5495 -13.3129 16.4609 11.3364 -9.90035 16.1747 13.4305 -4.54656 25.4669 
14.0702 -0.531442 28.2049 11.5272 -12.2076 14.5836 12.5809 -4.89724 23.2809 
13.3672 -5.8358 24.6656 11.7658 -8.68516 18.0498 12.3048 -7.11689 20.9781 
13.1173 -7.04034 23.2281 12.7806 -9.21041 20.4948 13.779 -4.09875 26.5145 
12.4829 -10.1907 18.9488 13.0028 -8.5316 21.7648 13.9814 -3.46162 27.297 
13.835 -2.67133 27.2407 13.2335 -12.8303 18.6134 12.6091 -11.3756 18.4522 
13.4945 -11.9925 20.125 12.9192 -10.779 19.8488 12.6548 -13.9217 15.6682 
12.053 -12.6126 15.8727 11.9007 -11.554 16.6791 12.9221 -13.5353 17.1208 
12.3717 -12.3239 17.224 12.0696 -10.8035 17.4533 10.9516 -9.65135 15.353 
11.4033 -10.951 15.8115 11.402 -9.23066 16.6648 13.1318 -7.94101 22.612 
13.8124 -7.5469 24.656 13.535 -6.6016 24.499 12.1887 -10.1368 18.1104 
13.7002 -5.51888 25.7474 13.355 -10.4023 21.1402 13.0438 -9.23336 21.2762 
13.3558 -2.94327 26.0055 13.9377 -1.79138 27.6924 11.5896 -11.8957 15.3916 
12.6398 -9.61209 19.8726 14.1016 -14.4621 18.6506 13.803 -13.9486 18.5896 
13.9913 -14.5441 18.1445 11.6374 -5.11079 20.8376 11.9551 -5.67427 21.2964 
11.8393 -5.22526 21.2895 13.6796 -14.2142 17.8535 14 -14.8381 17.6941 
13.9274 -14.9967 17.185 14.296 -15.403 17.4112 14.1426 -14.2132 19.1834 
14.4154 -14.9793 18.6264 11.7045 -4.73796 21.2228 11.6187 -4.30858 21.2353 
11.4559 -4.31525 20.7925 14.0034 -12.984 20.3389 14.2055 -13.6576 20.1427 
14.2221 -13.2908 20.6928 14.4148 -13.5588 21.0316 14.255 -12.9575 21.1384 
13.3386 -13.5068 18.0136 13.2485 -13.6465 17.6853 14.1845 -13.9687 19.6347 
13.8824 -13.451 19.4938 13.6022 -12.7129 19.6148 13.5246 -12.8877 19.2892 
14.4184 -14.3373 19.8722 11.462 -7.28305 18.1782 11.7039 -7.95054 18.3396 
11.7714 -7.8409 18.6185 13.4647 -13.4376 18.4082 13.0708 -12.7927 18.2573 
13.3706 -15.5223 14.2749 13.2022 -15.5806 13.8038 13.5963 -16.0272 13.8464 
11.441 -6.881 18.4628 11.2099 -6.32374 18.2277 11.2744 -6.70583 18.1054 
11.6795 -13.2278 13.1066 11.4297 -12.7009 12.9386 11.5642 -13.1827 12.6541 
13.0095 -15.6316 13.3148 12.8092 -15.0704 13.7527 13.0633 -14.9695 14.6198 
13.502 -15.4669 14.7217 12.8149 -15.6196 12.8875 13.0968 -16.1059 12.7972 
13.7884 -15.242 16.1132 14.1827 -15.68 16.2068 13.8572 -15.1411 16.6216 
13.5462 -14.5608 16.9871 12.8892 -13.199 17.4701 13.2274 -13.9163 17.2856 
13.6168 -15.385 15.2212 13.6191 -15.1856 15.7228 13.2742 -14.8884 15.4536 
13.3665 -14.7052 16.1422 10.9518 -9.9791 15.1504 10.7973 -9.28631 14.9553 
10.767 -9.56003 14.6721 12.942 -14.3171 15.7586 12.8787 -14.4093 15.3414 
13.9582 -15.848 14.9932 12.2008 -5.19666 22.1742 12.2561 -4.98015 22.4627 
11.8969 -4.59175 21.8064 12.3638 -13.3431 15.7718 12.5961 -13.6481 16.025 
12.269 -12.9139 16.1828 13.444 -11.5977 20.4057 13.7517 -12.3034 20.4396 
13.7514 -11.9641 20.7687 13.5172 -7.3052 24.0047 13.639 -7.04445 24.4791 
13.3067 -6.75427 23.8242 14.4408 -11.8629 23.0138 14.3209 -11.2722 23.089 
14.3157 -11.6367 22.7034 14.2261 -9.56972 24.3207 14.1224 -8.95803 24.5035 
14.0258 -9.1611 24.0229 14.324 -10.8797 23.4989 14.1722 -10.6109 23.1753 
14.2886 -12.3177 21.9281 14.4615 -12.7235 22.0721 14.3008 -11.9587 22.3478 
14.3278 -10.541 23.8577 14.4267 -11.037 23.8601 12.367 -6.91563 21.3623 
12.0442 -6.29167 20.9957 11.9942 -6.46861 20.6479 14.3677 -9.59663 24.9399 
14.3513 -9.92244 24.5411 14.4363 -10.2133 24.763 14.5119 -2.52862 29.1048 
14.5264 -1.99431 29.2729 14.3853 -2.18627 28.7158 14.3086 -10.1677 24.125 
14.3787 -9.30381 25.3153 14.2601 -9.08435 24.9371 14.4635 -9.44282 25.7174 
14.3977 -8.97087 25.7531 13.9813 -9.53163 23.6 14.0245 -9.97062 23.325 
14.1874 -10.1016 23.7292 14.5295 -2.92787 29.1446 14.4903 -3.39079 28.8792 
14.5856 -3.25455 29.3759 14.082 -4.22872 27.2882 14.1471 -3.76624 27.6359 
13.8944 -3.76959 26.9389 14.0643 -8.54797 24.7182 13.3501 -8.92847 22.4026 
13.3103 -9.33017 21.9604 13.6246 -9.74434 22.4572 14.1357 -11.3012 22.4227 
13.7542 -11.6645 21.0117 14.0637 -12.388 21.0916 13.8476 -10.851 22.0525 
13.9005 -10.5929 22.4243 13.9304 -10.1828 22.8755 14.2467 -12.5543 21.4668 
14.0701 -11.8541 21.6828 11.7386 -5.65013 20.6627 12.0304 -6.05782 21.2123 
12.6369 -6.41035 22.4878 12.3313 -6.29797 21.824 12.7478 -6.93293 22.4119 
11.4087 -4.59622 20.5103 11.5033 -5.05733 20.4601 11.4673 -5.18565 20.162 
11.6763 -6.10529 20.033 11.4403 -5.45945 19.8371 11.4017 -5.78359 19.4781 
14.0918 -7.89073 25.3982 14.1616 -7.72019 25.8474 13.9169 -7.38287 25.1391 
11.9674 -7.06189 20.0199 11.6562 -6.62254 19.4396 11.9336 -7.20918 19.7146 
13.7526 -8.82966 23.536 12.723 -7.56118 21.7922 12.663 -7.80724 21.3984 
13.0613 -8.227 22.1772 14.4265 -8.60002 26.254 14.2782 -8.45984 25.6615 
13.5026 -10.3283 21.6054 13.7647 -11.0184 21.6842 11.6243 -3.9853 21.4413 
12.2811 -15.2102 11.9581 12.0187 -14.5848 12.1351 12.0955 -14.8922 11.7551 
12.067 -2.91071 23.3574 12.366 -3.43464 23.7281 12.2475 -2.9783 23.7647 
11.7388 -13.9517 11.9197 11.6928 -13.9143 11.5209 11.904 -14.4598 11.6106 
12.1171 -15.0925 11.3584 12.4901 -15.427 12.2455 12.5866 -15.8519 11.894 
12.1439 -2.53897 23.7859 12.1068 -2.15349 23.8714 11.9497 -2.19724 23.4553 
11.8266 -14.0538 12.2822 11.6516 -13.5768 12.2774 12.6163 -15.4239 12.6222 
[...]
POINT_DATA 853
VECTORS velocity double
1.00762 -2.86629 -0.290034 1.17408 -3.06539 -0.257367 1.2633 -3.08992 -0.0828046 
1.29358 -2.96658 0.182209 1.26942 -2.72092 0.497349 1.18798 -2.40209 0.73099 
1.04269 -2.02039 0.753774 0.814021 -1.53945 0.626039 0.526852 -1.03739 0.575276 
0.23508 -0.625583 0.709676 -0.0451803 -0.326181 0.964695 -0.265234 -0.171761 1.21861 
-0.393567 -0.145486 1.3604 -0.39473 -0.22934 1.27532 -0.247564 -0.388193 0.93347 
0.04945 -0.50263 0.469494 0.469016 -0.441085 0.181964 0.992177 -0.237081 0.146612 
1.58621 -0.00788515 0.259717 2.17921 0.0924198 0.365593 2.63242 0.000214643 0.377182 
2.78085 -0.18177 0.321819 2.48531 -0.217399 0.31003 1.59 0.114717 0.447561 
0.0310251 0.909673 0.678358 -1.44909 1.67771 0.624534 -2.45717 1.95758 0.286771 
-3.06737 1.89296 0.0294704 -3.29757 1.71836 -0.0715405 -3.29746 1.69435 -0.21699 
-3.24562 1.97351 -0.530102 -3.03308 2.35767 -0.854728 -2.62335 2.61306 -1.05585 
-2.12283 2.75076 -1.19261 -1.62369 2.83804 -1.35922 -1.17668 2.93493 -1.62578 
-0.724813 2.95092 -1.91739 -0.237382 2.78248 -2.17218 0.246746 2.26591 -2.29181 
0.641419 1.45636 -2.31069 0.86636 0.603385 -2.27173 0.946951 -0.166484 -2.16392 
0.937521 -0.767185 -1.99948 0.895676 -1.19788 -1.80744 0.867081 -1.56378 -1.60991 
0.817697 -1.80924 -1.41067 0.750965 -1.94595 -1.2226 0.655512 -1.94801 -1.01192 
0.483177 -1.60892 -0.739946 0.199877 -0.470859 -0.415399 -0.157152 1.75977 -0.0208791 
-0.435176 3.88444 0.617635 -0.548577 4.5382 1.35154 -0.524188 3.41916 1.65954 
-0.398386 0.641921 1.33082 -0.276819 -1.48524 0.996606 -0.0516164 -2.03188 0.670765 
0.241841 -2.17585 0.307068 0.530165 -2.34598 0.00734832 0.782967 -2.583 -0.189277 
1.04676 -3.0099 -0.436995 1.15632 -3.13982 -0.444536 1.3248 -3.35933 -0.520897 
1.3464 -3.31511 -0.394145 1.39672 -3.24127 -0.297285 1.37024 -3.05126 -0.0827025 
1.34724 -2.81417 -0.0429209 1.27033 -2.564 0.183621 1.15485 -2.17085 0.192821 
1.01625 -1.82814 0.265595 0.856875 -1.40717 0.157096 0.67676 -1.04736 0.213385 
0.411339 -0.57675 0.363189 0.199437 -0.303272 0.570768 -0.0212134 0.0295903 0.776921 
-0.186101 0.131107 0.995094 -0.380598 0.321502 1.21715 -0.494166 0.400527 1.33706 
-0.545436 0.430607 1.33373 -0.499555 0.283768 1.23802 -0.356931 0.135795 0.960189 
-0.18363 0.0405751 0.728252 0.0905779 -0.00513503 0.526175 0.381754 -0.0392026 0.428513 
0.801824 0.0295927 0.455827 1.05211 0.111958 0.560598 1.49618 0.156598 0.623496 
1.78663 0.172861 0.688278 2.13076 0.100026 0.642335 1.99327 0.109538 0.675569 
1.9728 0.0659177 0.601734 1.4936 0.223577 0.660271 0.602606 0.615769 0.812671 
-0.306836 1.06243 0.926611 -1.07688 1.44573 0.892631 -1.72836 1.68544 0.779215 
-2.17681 1.68978 0.708885 -2.43241 1.62335 0.624452 -2.52115 1.4732 0.59719 
-2.55 1.38606 0.503091 -2.44433 1.37691 0.357961 -2.24766 1.42094 0.259242 
-2.00921 1.548 0.0936973 -1.84037 1.66971 -0.0424429 -1.54172 1.84468 -0.238978 
-1.25814 1.84095 -0.234766 -0.89399 1.89947 -0.45193 -0.68332 1.89358 -0.616819 
-0.324441 1.80317 -0.920407 -0.0677497 1.64539 -1.09124 0.375685 1.28987 -1.4641 
0.618151 1.04019 -1.70229 0.97149 0.449284 -1.9699 1.16132 0.00912334 -2.11228 
1.32965 -0.639821 -2.24849 1.36833 -1.03599 -2.26075 1.33642 -1.48176 -2.16685 
1.27304 -1.71877 -2.04263 1.15274 -1.77711 -1.87374 1.0932 -1.97186 -1.71157 
0.987034 -2.05576 -1.50359 0.945993 -2.21152 -1.33362 0.839795 -2.20055 -1.1654 
0.737894 -2.22196 -0.963161 0.578418 -2.07137 -0.732787 0.407344 -1.78275 -0.478645 
0.193899 -0.98917 -0.246491 0.00606732 -0.00608374 -0.0393988 -0.236099 1.71546 0.270014 
-0.342248 2.26371 0.583065 -0.435421 2.89708 0.920126 -0.440609 2.43352 1.1471 
-0.3534 0.584874 1.08691 -0.294167 -0.845629 1.01126 -0.15271 -1.86084 0.796733 
-0.0397827 -2.10129 0.655015 0.22944 -2.28318 0.315292 0.407065 -2.35136 0.11816 
0.680125 -2.58687 -0.170765 0.806435 -2.69512 -0.262125 -0.247739 0.349841 0.684109 
-0.156313 0.346545 0.363106 -0.148064 -1.44085 0.714267 0.145477 -1.4861 0.0299059 
-0.0422991 -1.15613 0.396233 0.158032 -2.32048 0.369068 0.523629 -2.34031 -0.41966 
0.21297 -2.2153 0.160635 0.584609 -2.58861 -0.131832 0.875779 -2.56621 -0.909925 
1.35136 -3.47408 -0.830398 1.00626 -3.01314 -0.555031 1.43772 -2.8296 -1.7827 
1.17099 -2.73371 -1.35701 -0.0883943 0.890106 1.12268 1.43497 -1.11645 -1.81967 
1.70077 -2.05765 -2.20011 0.607547 -2.60016 -0.312994 1.64037 -2.78126 -2.08768 
0.920332 0.461318 0.966305 -1.07709 1.31925 1.14074 1.40608 -2.52715 -0.764686 
1.53204 -3.2078 -0.81897 1.55206 -3.58335 -0.962234 -0.130302 0.570953 0.738451 
-0.649482 1.05971 1.30152 -0.0745799 1.98562 -1.55128 0.87678 0.00407795 -1.11125 
-1.35066 2.16098 -0.672155 1.07306 0.234239 -2.23274 0.885573 0.411621 1.1023 
-1.42868 1.22411 1.28207 1.12872 -1.68737 -0.551639 0.298894 -0.00271788 0.21997 
-0.406553 1.44988 0.278927 -0.846139 1.50815 0.56209 0.844051 -1.03495 -0.307359 
1.49467 -1.08461 -2.15143 0.185856 0.964965 -0.371745 -0.456696 0.93643 1.12183 
-0.265373 0.587751 0.933349 1.00564 -2.9349 -0.788211 0.411828 0.86665 -0.901975 
-0.721741 1.58525 0.241635 -0.147953 0.799168 1.32837 0.526388 0.404683 1.12827 
-1.38044 1.02811 1.30396 -0.568569 0.888311 1.14093 -1.13535 1.25355 0.805587 
0.159446 0.4083 0.952683 -1.27293 1.03281 1.09578 1.6354 -2.14637 -1.83811 
1.34486 -3.3409 -1.17336 -0.395419 0.736646 1.48793 1.13084 -0.304678 -1.55647 
1.229 -1.13453 -1.24278 -1.06291 1.42978 0.562764 -0.131994 1.28133 -0.095614 
0.548563 0.166692 -0.390971 -0.558351 1.45534 0.902573 1.70563 -2.88272 -1.71234 
-0.740007 1.38537 1.09816 -0.216689 1.12552 0.577478 1.70794 -3.36954 -1.52674 
1.72684 -3.48783 -1.69497 -0.338351 0.537079 0.912465 -0.625725 1.09281 1.15927 
-0.596752 0.80451 1.23262 -0.68562 1.31306 1.22272 0.651531 0.294883 0.89205 
-0.133164 0.575264 1.27529 -0.57264 0.827411 1.29746 0.137148 0.315007 0.759547 
-0.328543 0.706321 1.105 -0.750047 1.05841 1.19327 -1.67875 1.09865 1.00439 
-0.900335 0.874267 1.39278 -1.38659 1.17756 0.802641 0.123956 0.696745 0.189937 
0.653061 -0.483412 -0.255192 0.946537 -0.731008 -0.794043 -0.815064 1.26545 1.07231 
1.40977 -1.88083 -1.31024 -0.597318 1.17805 1.21989 -0.444277 1.29693 0.895306 
1.76389 -2.79147 -2.13546 1.61017 -3.5767 -1.50598 -0.510322 0.727867 1.4688 
-0.665684 1.48906 1.00864 0.112619 -0.285124 0.432419 -0.0198961 -0.0282729 0.578294 
0.255068 -0.226655 0.366869 -0.0872093 1.83587 -1.33981 0.167694 1.27362 -0.959215 
0.184839 1.41344 -1.22804 0.224543 -0.0375561 0.464664 0.470631 -0.247191 0.277013 
0.690089 -0.189373 0.259591 0.717585 -0.349995 0.138418 -0.0519369 -0.263574 0.583094 
0.246932 -0.497186 0.290418 0.142987 1.68234 -1.51994 0.128002 1.90768 -1.763 
-0.173852 2.3557 -1.83626 -0.43882 0.200676 1.11048 -0.290961 -0.148816 0.926366 
-0.388166 -0.0632339 1.1191 -0.340828 -0.303864 1.13644 -0.441878 0.00511963 1.24496 
-0.0499168 0.254755 0.694747 0.0630901 0.227203 0.661394 -0.173807 -0.220794 0.737771 
-0.283486 0.0980395 0.849485 -0.459134 0.499187 1.04831 -0.396151 0.45065 0.963699 
-0.116609 -0.461398 0.696846 -1.37136 1.84078 -0.229885 -1.10968 1.59798 0.200336 
-1.01205 1.62363 0.163978 -0.140265 0.250436 0.724121 -0.305071 0.566525 0.911422 
2.07558 0.117691 0.508916 2.26542 0.0921166 0.519765 2.43364 0.0680775 0.383239 
-1.32267 2.00455 -0.467831 -1.66725 2.40722 -0.903207 -1.6164 2.16744 -0.639418 
0.383852 0.635764 1.16875 -0.107975 0.85059 1.22181 0.336602 0.696664 1.08008 
2.42574 0.0368217 0.506717 1.95743 0.149057 0.685596 1.63772 0.172756 0.664999 
1.87616 0.114117 0.479915 2.50057 -0.0228215 0.485742 2.75319 -0.091776 0.354109 
1.19477 -0.0295704 0.33083 1.28374 -0.116965 0.19273 0.950714 -0.108231 0.282759 
0.60099 -0.0199519 0.417203 -0.0581714 0.422098 0.829318 0.255875 0.162007 0.603948 
1.63208 0.0830471 0.435141 1.33571 0.044463 0.416183 1.29624 0.125858 0.569522 
0.952244 0.0735115 0.505502 -1.56415 1.06494 1.14283 -2.06246 1.21605 0.797221 
-1.99981 1.21376 0.911891 0.867772 0.203036 0.725141 1.04647 0.219296 0.768227 
1.89126 0.0663323 0.323357 0.641006 0.665997 -1.25814 0.79439 0.443216 -1.39861 
0.484603 1.18128 -1.56505 0.280883 0.417621 1.07875 0.413649 0.337721 0.92226 
-0.000945779 0.510318 1.13539 -0.635365 0.941615 1.2881 -0.555394 0.571652 1.23591 
-0.59028 0.66885 1.30323 0.623989 -0.201841 -0.350349 0.791539 -0.552911 -0.534321 
0.775523 -0.277736 -0.64424 -0.342605 -0.144082 1.31046 -0.328572 0.0612566 1.22828 
-0.39869 0.0916272 1.31012 0.0923601 -0.132409 0.663079 0.245642 -0.194135 0.425269 
0.108575 0.057814 0.543982 -0.231046 -0.000459958 1.11049 -0.27782 0.246268 1.09306 
-0.468812 0.0893344 1.36042 -0.412061 -0.17572 1.35172 -0.44304 0.100838 1.3542 
-0.13047 -0.0808703 0.991733 -0.16633 -0.230032 1.10045 0.0340859 1.12144 -0.222627 
-0.0249712 1.33324 -0.587029 -0.195353 1.47353 -0.488738 0.211345 -0.453835 0.64073 
0.0839746 -0.296324 0.758072 0.0935678 -0.462331 0.826428 1.42387 -3.49423 -0.688377 
1.35339 -3.44498 -0.67711 1.48419 -3.60459 -0.944762 -0.0343585 -0.128139 0.864925 
0.329309 -0.615605 0.549687 0.300159 -0.418681 0.462905 0.380288 -0.81799 0.622117 
0.462243 -0.816237 0.470434 -0.0502988 0.256623 0.730806 -0.177592 0.332186 0.908447 
-0.109775 0.0928531 0.89254 1.42761 -3.44024 -0.585464 1.47225 -3.41154 -0.611288 
1.38332 -3.31295 -0.375148 1.6225 -3.08196 -1.28512 1.6405 -3.33489 -1.24751 
1.71593 -3.16633 -1.62686 0.379907 -0.323701 0.244327 -0.17606 0.888716 0.671903 
-0.343424 1.06539 0.877283 -0.320304 0.809242 0.9586 -0.447221 0.361442 1.29377 
-0.60302 0.744348 1.32955 -0.524958 0.337611 1.29893 -0.498212 0.704481 1.25984 
-0.421554 0.623014 1.18031 -0.297131 0.517253 1.02982 -0.481736 0.124169 1.32006 
-0.531382 0.417733 1.35456 -0.17401 1.71213 -1.01195 0.0948646 1.25142 -0.728817 
0.52989 0.465086 -0.625036 0.319895 0.864643 -0.610453 0.364572 0.603491 -0.319946 
-0.348931 2.43066 -1.72187 -0.336922 2.167 -1.43023 -0.523495 2.30408 -1.39288 
-0.518395 1.8809 -0.783717 -0.715508 2.34314 -1.26244 -0.918607 2.3366 -1.10061 
0.654003 -0.765611 -0.0375681 0.752371 -1.01327 -0.0534651 0.770313 -0.778602 -0.330644 
-0.491092 1.5964 -0.166333 -0.802262 1.89623 -0.512137 -0.616482 1.64153 -0.100706 
0.0836569 0.321401 0.468664 0.0230031 1.00128 0.100597 -0.13738 1.17884 0.261685 
-0.0537315 0.93439 0.390989 0.605049 -1.05621 0.421614 0.549543 -0.798922 0.258998 
-0.533533 1.04542 1.19052 -0.555356 0.794499 1.30209 0.233235 1.88641 -1.90683 
2.26312 -0.0736732 0.455507 1.7151 0.147407 0.644884 1.98872 0.00375137 0.487109 
1.10459 0.178067 -2.18853 1.3343 -0.524698 -2.1178 1.28248 -0.373639 -2.19642 
1.0933 0.392113 0.738295 1.04309 0.398192 0.637446 1.58424 0.15756 0.549212 
2.12741 -0.10854 0.356962 2.43152 -0.0873283 0.452364 2.69562 -0.234084 0.301044 
1.19542 -0.172703 -2.23993 1.12616 -0.074532 -2.25668 0.968849 0.467492 -2.26509 
1.19877 0.35648 0.806638 0.722008 0.554516 0.909274 2.40806 -0.0295491 0.507182 
2.02759 0.0747237 0.627703 0.418947 0.706174 0.729317 0.86712 0.464985 0.571792 
-0.226433 0.99253 1.03038 0.111226 0.855869 0.872854 0.241668 0.770918 0.979355 
1.51755 0.241047 0.768485 2.0748 0.100487 0.663084 -0.165683 1.009 0.815655 
-0.690121 1.25738 0.926017 -0.676193 1.27908 0.81524 -0.770022 1.34608 0.703702 
-1.22358 1.54605 0.776047 -2.06867 1.82569 0.570571 -2.00656 1.87588 0.466574 
-1.67479 1.72553 0.684253 -1.40745 1.57563 0.861843 -0.509309 1.07012 1.17419 
-0.690596 1.21285 1.04914 0.895916 -2.84266 -0.376869 1.0522 -3.05404 -0.516852 
0.925369 -2.84769 -0.358997 0.90056 0.443855 1.05803 1.49519 0.259389 0.833598 
1.4925 0.261957 0.875929 -1.10332 1.41072 0.995483 -1.49467 1.54527 0.950603 
-2.81127 1.9544 0.13213 -2.39858 1.84952 0.457968 -2.64756 1.82312 0.362822 
-2.34029 1.65556 0.659565 -2.72 1.73606 0.382116 -2.47608 1.56059 0.621364 
-2.90251 1.69181 0.277698 0.810567 -2.74915 -0.558715 0.765221 -2.63603 -0.613052 
0.951028 -2.77434 -0.854163 -3.2248 1.80315 -0.0293287 -2.98159 1.61965 0.230623 
-1.94988 1.70446 0.755248 -1.8181 1.47831 1.00876 -1.65757 1.52189 0.997953 
-1.24972 1.27886 1.24555 1.20566 -3.28107 -0.737526 1.17964 -3.22853 -0.599393 
-0.645671 1.05265 1.29955 1.45408 -2.19539 -2.08992 1.55977 -2.84386 -1.96131 
1.38934 -2.29444 -1.97093 -1.84656 2.23133 -0.696378 -1.27734 1.5857 0.179279 
-0.944085 1.47393 0.567741 -2.39262 2.71143 -1.1429 -2.05548 2.18385 -0.64419 
-2.24238 2.06712 -0.530218 -1.7205 1.78121 -0.170547 -1.50154 2.4496 -0.981895 
-1.12535 2.04663 -0.58089 -1.18167 2.24796 -0.839737 -1.95511 1.61379 0.0146276 
-1.52941 1.35559 0.465726 -1.43386 1.40202 0.423463 -1.09163 2.31398 -0.96865 
-1.39268 2.88479 -1.48168 -0.958003 2.96456 -1.77461 -0.197056 -0.645915 0.707644 
-0.263917 -0.507384 0.888859 -0.296884 0.309635 0.883034 -0.0755042 0.125704 0.162858 
-0.200203 1.11274 0.308137 -0.126746 0.879045 0.116712 0.306446 -1.75571 -0.251972 
0.180132 -1.20034 -0.145822 0.281052 -1.37736 -0.332983 -0.491799 2.90752 -2.05761 
-1.86828 2.79081 -1.26096 -0.531161 1.26423 1.07761 -0.503188 1.38669 0.909722 
-0.584566 1.38104 1.07132 0.118889 -0.632481 -0.163643 0.0565557 -0.702804 0.0189633 
-2.95292 1.56169 0.030835 -2.99406 1.54124 0.125633 -2.535 1.37594 0.417106 
-1.96544 1.24686 0.982319 -1.96871 1.33517 0.999374 -1.40077 1.09758 1.33046 
0.570543 -2.50754 -0.361728 0.40298 -2.45417 -0.062552 0.372916 -2.32164 -0.11423 
-3.00804 1.56843 0.185656 -3.31161 1.6722 -0.1259 -3.27668 1.79866 -0.354424 
-2.88925 1.62086 -0.0722413 -2.54148 1.41728 0.559116 -2.45373 1.82382 -0.288236 
-2.4223 1.98342 -0.45515 -2.83144 2.48781 -0.953883 -2.17849 1.51474 0.120984 
-2.68078 1.78722 -0.266639 -3.17734 2.17979 -0.712145 -2.79522 1.68799 -0.157314 
-0.14154 -0.571637 0.532402 -0.0812054 -1.33164 0.532894 -2.32925 1.38247 0.328955 
0.0591931 -1.76119 0.316645 0.0386132 -1.34435 0.244392 0.191046 -1.96427 0.0941576 
-0.947911 1.02035 1.18477 -1.04628 1.10502 1.05577 -1.3151 1.09959 0.960111 
0.799891 -2.23286 -1.06943 0.863181 -2.36394 -1.06941 0.7856 -2.38735 -0.905933 
-0.0926264 -0.524246 0.381254 -0.0207807 -0.651423 0.212158 -1.49529 1.05788 1.05064 
-1.84338 1.17862 0.753581 -2.01071 1.2069 0.733028 -0.790057 1.71793 -0.136596 
-0.560498 1.53396 0.27292 0.951326 -2.42698 -1.17665 0.891246 -2.20927 -1.24374 
0.0117815 2.57352 -2.25363 0.425499 1.66691 -2.01153 -0.985348 1.70013 -0.00862306 
-1.02043 1.83041 -0.261946 0.833566 -1.46922 0.380504 0.771461 -1.24669 0.206086 
0.730239 -1.28772 0.415887 0.671376 -1.27813 0.577158 1.19379 -1.43242 -0.983353 
1.0954 -0.953933 -1.02039 1.05669 -1.20525 -0.77351 0.930882 -1.70363 0.466421 
0.942173 -1.62461 0.198589 1.02347 -1.91938 0.50487 0.941224 -1.79603 0.698234 
1.28286 -0.695292 -1.67052 1.24295 -0.370923 -1.88036 1.08814 -0.013319 -1.75747 
1.16709 -2.294 0.50041 1.09758 -2.10308 0.516052 1.12446 -2.22127 0.76825 
1.37769 -2.75015 -0.338729 1.30779 -2.55132 -0.160918 1.30984 -2.68606 0.0722143 
1.23508 -2.56584 0.639961 1.27047 -2.64377 0.374819 1.22737 -2.48534 0.454443 
1.22764 -2.39608 0.166199 1.08395 -1.98093 0.215656 1.432 -3.13463 -0.36442 
1.42615 -2.97769 -0.405743 1.36551 -2.94995 -0.0612738 1.27537 -2.11504 -0.639383 
1.15693 -2.01693 -0.185857 1.25208 -2.30195 -0.234758 0.936084 0.65901 -2.19002 
0.801264 0.99875 -2.16266 1.09388 0.175524 -2.05351 0.925068 0.283295 -1.5909 
0.791432 0.794516 -1.85269 -0.200379 0.349806 0.513756 0.633984 1.33654 -2.09857 
0.460698 1.88254 -2.30709 0.892131 0.760234 -2.25657 1.5346 -1.33251 -2.24836 
1.43034 -0.892203 -2.22132 1.62058 -1.61446 -2.18513 1.30794 -2.77961 0.223989 
1.59269 -1.67135 -2.2662 1.34836 -0.801939 -2.26089 1.70391 -2.17602 -2.061 
1.62312 -1.70603 -2.05589 1.46957 -3.28662 -0.534748 1.56196 -3.43123 -0.909966 
0.770061 1.0418 -2.30071 1.32082 -2.9001 0.17912 1.49481 -2.91078 -0.830573 
1.05609 -1.79736 -0.0501307 1.11763 -0.209967 -2.25081 1.33232 -3.01384 0.0654339 
1.28844 -2.85831 0.33594 0.967873 -1.51949 -0.127664 1.33018 -3.17243 -0.153652 
1.3369 -3.10102 -0.0455846 1.28586 -3.04601 0.0398523 1.62321 0.224691 0.836345 
1.34171 -3.34839 -0.466277 1.30388 -3.20786 -0.243624 1.26994 -3.20954 -0.310868 
1.22527 -3.09437 -0.181033 1.38982 -3.15029 -0.201398 1.16348 -3.10933 -0.367801 
1.24561 -3.26496 -0.488708 1.25037 -3.22266 -0.383934 1.08321 -3.00601 -0.361752 
1.01334 -2.91824 -0.349759 1.11687 -3.09952 -0.457723 1.1002 -2.98575 -0.293969 
1.37458 -1.31134 -2.23058 1.62482 -1.98834 -2.26318 1.60243 -2.1741 -2.2279 
0.901153 -2.72722 -0.254314 0.918811 -2.79654 -0.307849 1.76304 -3.20486 -1.8367 
1.76849 -2.90453 -1.96372 1.76425 -3.23224 -1.92985 1.72939 -3.25524 -1.93295 
1.71282 -2.80152 -2.13749 1.23512 -3.2899 -0.583272 0.793646 -2.64178 -0.224952 
0.657005 -2.44985 -0.099136 0.681442 -2.52425 -0.138527 0.808826 -2.75563 -0.32032 
0.749278 -2.64554 -0.225169 0.605633 -2.47126 -0.0790482 0.540718 -2.45533 -0.0273503 
0.459549 -2.34245 0.0684198 0.817507 -2.79591 -0.385441 0.64998 -2.5995 -0.165485 
0.219602 -2.21944 0.332617 0.332279 -2.32613 0.198079 0.328853 -2.26502 0.208563 
0.390659 -2.25385 0.143502 -0.0490401 -2.07011 0.669176 0.084884 -2.20806 0.493767 
0.0917459 -2.16379 0.487566 0.0920656 -2.11107 0.486333 -0.178666 -1.87216 0.845214 
-0.159016 -1.90939 0.817639 0.382874 -2.4672 0.0932307 0.371201 -2.41031 0.136925 
0.213362 -2.32956 0.323828 1.67721 -2.53842 -1.77882 1.54862 -2.40777 -1.41975 
1.58348 -2.75937 -1.32334 0.471089 -2.44846 0.0335222 1.03291 -2.67525 -1.12409 
1.12361 -2.93433 -1.07763 0.605663 -2.62609 -0.225054 0.393617 -2.48931 0.0265257 
1.746 -2.43241 -2.18722 0.318386 0.603081 1.26494 -0.0380809 -2.09306 0.634872 
0.0451126 -2.20581 0.537383 -0.100142 -2.01168 0.731517 0.916754 0.205975 -2.22497 
1.1325 -0.493787 -2.21854 1.13371 -0.793377 -2.15884 0.0260475 -1.95478 0.450445 
1.1145 -1.02035 -2.08832 0.956085 -0.498079 -2.09 1.12163 -1.26982 -2.0242 
1.28516 -1.55926 -2.10279 0.327731 -2.07269 -0.159946 0.447173 -2.08062 -0.423353 
1.05518 -1.32302 -1.93561 1.21195 -1.7549 -1.95681 1.20017 -3.24748 -0.860813 
1.36655 -3.46649 -1.02479 0.994476 -1.58273 -1.76342 1.02551 -1.47136 -1.84659 
1.14004 -1.91144 -1.80243 1.03528 -2.43233 -1.32759 1.01785 -3.01408 -0.678143 
1.18106 -3.13911 -0.986888 0.908759 -0.97906 -1.9028 1.5251 -2.16917 -2.16926 
1.04145 -2.04576 -1.59444 0.932179 -1.82073 -1.56112 0.962783 -1.69928 -1.66776 
0.882974 -1.39543 -1.70938 0.887838 -2.02024 -1.37436 0.902586 -1.91385 -1.4644 
0.971124 -2.14392 -1.42179 0.706705 -2.49072 -0.654953 0.847446 -1.70424 -1.51082 
0.837299 -2.03194 -1.29008 0.672406 -2.33123 -0.736383 0.56554 -2.19782 -0.616025 
0.653791 -2.17439 -0.829511 0.752359 -2.09011 -1.10551 0.796091 -2.0725 -1.19571 
0.192788 -2.31395 0.267073 0.710428 -1.97463 -1.12296 0.696386 -2.08175 -0.999949 
0.622338 -2.02017 -0.874099 0.538968 -1.89025 -0.74615 0.581378 -1.84007 -0.884627 
1.31911 -2.84767 -1.56345 1.17613 -2.41815 -1.58982 1.25904 -2.39611 -1.73717 
0.783058 -1.88305 -1.31598 -0.00841976 -2.06866 0.562438 1.68662 -3.56028 -1.61734 
1.66588 -3.29717 -1.84852 -0.294158 -1.14271 1.02497 -0.234028 -1.46653 0.91139 
-0.216095 -1.70174 0.896055 -0.148155 -1.75868 0.769863 -0.319979 -0.237543 1.04756 
-0.243585 -1.09625 0.898439 -0.345363 -0.252458 1.14093 -0.389729 0.795957 1.2529 
-0.342658 -0.657738 1.14132 -0.353139 1.35392 0.91349 -0.397967 1.57589 1.1236 
-0.442291 1.95887 1.35698 -0.489485 2.9845 1.3901 -0.509155 3.58335 1.29909 
-0.498583 3.75959 1.1055 -0.436681 2.63436 1.03119 -0.352603 1.73003 0.800389 
-0.55347 4.21694 1.58777 -0.510117 4.41681 1.00548 -0.457701 3.58128 0.844169 
-0.464725 2.14762 1.5464 1.32799 -0.555416 -2.00104 -0.297409 1.39284 0.629219 
-0.260477 1.34267 0.482576 0.32947 -1.31605 -0.471612 0.20526 -0.829849 -0.323521 
1.28606 -2.22398 -1.85808 0.356694 -1.18558 -0.581468 0.446977 -1.68569 -0.616599 
0.0854514 -0.124001 -0.221937 0.504907 -1.98612 -0.610028 -0.393926 3.06524 0.606158 
-0.331435 2.72341 0.386134 -0.305934 2.14642 0.44042 -0.389192 2.57716 0.737834 
-0.0598272 0.767042 -0.0614323 -0.209626 1.81623 0.143187 -0.31665 2.95647 0.261505 
1.07604 -2.33439 -1.47018 0.0224725 0.551186 -0.237331 1.35198 0.272439 0.907724 