# vtk DataFile Version 3.0
vtk output
ASCII
DATASET POLYDATA
POINTS 853 float
14.2182 0.276799 30.5527 14.1056 -0.672348 30.3743 14.051 -1.67538 30.1515 
14.034 -2.74251 29.8207 14.0282 -3.92583 29.3654 14.0596 -5.14199 28.7699 
14.0929 -6.30985 28.0018 14.136 -7.47817 27.0161 14.2296 -8.57403 25.9128 
14.3425 -9.54357 24.8521 14.4659 -10.4867 23.8092 14.5801 -11.3829 22.8309 
14.6631 -12.2422 21.8766 14.6585 -13.0635 20.9026 14.5609 -13.7974 19.9676 
14.4464 -14.467 18.9581 14.2068 -15.0202 17.8777 13.8435 -15.4625 16.7268 
13.3965 -15.7831 15.4805 12.8032 -16.0104 14.2338 12.1323 -16.1193 13.1021 
11.5425 -15.9826 12.106 11.1809 -15.5035 11.3678 11.104 -14.6435 10.9561 
11.25 -13.4336 10.8368 11.46 -12.131 11.0553 11.7488 -10.9631 11.5938 
12.2006 -10.0006 12.3812 12.6718 -9.24288 13.347 12.8333 -8.63605 14.4079 
12.6331 -8.18047 15.4852 12.3647 -7.93069 16.5092 12.2192 -7.80117 17.4392 
12.1348 -7.63616 18.3335 12.0181 -7.32972 19.2387 11.843 -6.81425 20.1405 
11.6512 -6.12044 21.0387 11.4839 -5.22209 21.9824 11.3999 -4.20749 22.9493 
11.3902 -3.12486 23.9234 11.5 -1.95582 24.8259 11.7595 -0.813401 25.5549 
12.0979 0.26438 26.0967 12.4153 1.23665 26.5085 12.6855 2.14352 26.9136 
12.9331 3.09503 27.2831 13.146 4.05708 27.6276 13.3653 4.95621 27.9968 
13.6765 5.78764 28.3739 14.1342 6.55379 28.749 14.6827 7.16178 29.1254 
15.2457 7.48548 29.5154 15.7189 7.45201 29.8696 15.9579 7.05622 30.1559 
15.9378 6.31529 30.3969 15.6968 5.26551 30.5972 15.3416 4.10757 30.7191 
14.9745 3.03964 30.7325 14.6347 2.07238 30.7295 14.3789 1.17429 30.6926 
14.1825 0.738446 30.1807 14.0899 0.12621 30.1759 13.9868 -0.631946 29.8393 
13.9783 -1.22051 29.8208 13.9194 -2.11657 29.4762 13.9154 -2.87546 29.3004 
13.8482 -3.71522 28.7886 13.9015 -4.44491 28.5669 13.8907 -5.41449 27.903 
13.9561 -6.24644 27.3887 13.9204 -6.98094 26.6041 13.9868 -7.686 25.9545 
14.0736 -8.55812 25.0181 14.1986 -9.24621 24.3673 14.2148 -9.84013 23.5471 
14.3325 -10.4662 23.0156 14.3694 -11.1548 22.152 14.3609 -11.7325 21.4354 
14.3344 -12.2843 20.6439 14.2926 -12.7817 20.17 14.158 -13.34 19.3542 
13.9553 -13.7059 18.725 13.7117 -14.0557 17.8758 13.4802 -14.3942 17.2493 
13.1133 -14.7187 16.2865 12.7961 -14.8124 15.5892 12.4709 -15.0834 14.6963 
12.104 -15.1497 13.877 11.6984 -15.2949 13.0077 11.4683 -15.0432 12.5045 
11.2363 -14.9747 11.9409 11.1514 -14.5541 11.6051 11.195 -13.8635 11.4347 
11.2853 -13.1473 11.426 11.3546 -12.4626 11.4529 11.4755 -11.7603 11.706 
11.6178 -11.087 12.2899 11.7604 -10.5881 12.7799 11.9083 -10.1268 13.4949 
12.1042 -9.70923 14.2068 12.2038 -9.3422 15.0795 12.2577 -9.17572 15.7675 
12.258 -8.98153 16.5804 12.3064 -8.81437 17.1464 12.3194 -8.54575 18.0193 
12.3438 -8.47541 18.5614 12.2853 -8.03788 19.5255 12.1784 -7.71703 20.0821 
12.046 -7.08271 20.9454 11.9192 -6.6686 21.5105 11.7854 -5.7487 22.4703 
11.6937 -5.11399 23.0348 11.6605 -4.16927 23.8943 11.6304 -3.50585 24.4733 
11.6895 -2.36544 25.3093 11.8392 -1.66047 25.7564 12.0573 -0.652207 26.3077 
12.2524 0.0565756 26.6271 12.3826 0.801226 26.8621 12.6385 1.45045 27.1279 
12.8592 2.28149 27.3921 13.0863 2.80515 27.6758 13.2335 3.56962 27.8662 
13.4856 4.21185 28.0989 13.7215 5.05164 28.338 14.0207 5.60932 28.582 
14.3126 6.22224 28.8251 14.5924 6.59875 29.0311 14.9565 7.00804 29.282 
15.204 7.03757 29.4869 15.4563 7.09187 29.6779 15.6192 6.90408 29.87 
15.6236 6.39483 30.0529 15.5849 5.83784 30.2604 15.3559 5.05229 30.2707 
15.2404 4.41762 30.407 14.9279 3.48608 30.3807 14.7226 2.80647 30.4791 
14.4727 2.06817 30.2943 14.3604 1.52769 30.3634 15.2512 6.45882 29.639 
14.9726 6.5707 29.3571 15.1883 5.64493 29.8922 14.5376 5.84295 29.0816 
14.8905 5.95466 29.4491 14.8516 4.31067 29.9551 14.0485 4.66433 28.7722 
14.5969 4.98509 29.3828 14.4435 2.90173 29.9112 13.5819 3.30499 28.4366 
13.8321 0.277686 29.4697 14.0878 1.58735 29.7431 12.7831 0.662019 27.6193 
13.1636 1.98247 28.0536 11.3317 -13.2825 12.0268 12.2288 -4.28395 25.0458 
12.2379 -2.53144 26.1988 14.2044 3.6572 29.2357 12.5794 -0.572218 27.1871 
11.3173 -14.101 12.2298 11.4162 -12.3474 12.1036 13.4984 -4.14883 27.6477 
13.6028 -2.60972 28.5277 13.6451 -1.14131 29.0016 13.8302 -9.64554 22.6554 
13.7593 -11.6899 20.0101 11.7067 -6.03718 21.7749 12.3276 -5.97564 23.575 
12.2237 -7.97685 18.9227 11.5116 -2.7931 24.6796 11.6193 -14.1112 13.2793 
11.6007 -11.6096 13.1047 13.544 -5.73142 26.6157 13.7305 -8.4797 23.9297 
12.7032 -8.76629 20.3165 12.6514 -9.53372 18.6116 13.6314 -6.87666 25.6977 
11.9108 -3.1655 25.2865 12.4485 -7.46765 21.9294 13.8619 -10.6143 21.437 
13.0298 -13.0698 17.4113 13.8148 2.35473 29.0238 12.1385 -6.56409 22.3849 
12.5749 -8.91254 19.3255 11.5248 -13.1455 12.787 12.0237 -13.845 14.4807 
11.777 -11.0912 14.2995 13.4992 -12.4399 18.7831 12.4728 -10.06 17.0523 
12.4904 -13.5774 16.0134 12.1465 -10.5688 15.6974 12.6608 -3.64004 26.3014 
13.4834 1.17446 28.7841 11.7321 -12.6949 13.896 12.0931 -5.03838 24.1005 
12.7955 -5.45173 25.2146 12.4949 -9.6197 17.8331 12.5409 -8.04139 21.1014 
12.9338 -7.31187 23.4075 13.1691 -10.0178 20.0823 12.9808 -2.76464 27.2931 
12.9541 -10.9406 18.4546 13.215 -9.19901 21.496 13.1969 -1.84918 28.0183 
13.0642 -0.998802 28.0421 13.4322 -13.1055 18.1655 12.9793 -11.9414 17.9214 
13.815 -12.3675 19.5235 13.3169 -11.4283 19.2741 12.3466 -14.1393 15.2435 
12.1414 -12.984 15.2814 12.2605 -12.0458 16.0933 12.8863 -13.7372 16.756 
12.5734 -12.7232 16.7166 12.5511 -11.4127 16.9236 11.9522 -10.3562 14.9039 
11.9654 -11.5063 15.1854 12.2914 -10.0065 16.329 13.1667 -8.42301 22.5173 
13.5274 -7.40286 24.7091 13.1102 -6.39126 24.8211 12.7242 -10.8641 17.6395 
13.0174 -4.7104 26.3078 13.7025 -10.9793 20.5469 13.3553 -9.93725 20.8509 
12.569 -1.6703 26.9998 13.23 -0.04002 28.4208 11.8905 -12.3673 14.7179 
13.0791 -10.4232 19.414 14.0987 -14.3512 18.3872 13.8574 -13.9603 18.269 
13.925 -14.4631 17.9229 11.8 -6.34744 21.6198 12.017 -6.66097 21.8868 
11.8737 -6.26978 22.0229 13.6225 -14.2291 17.5989 13.8365 -14.7464 17.525 
13.6612 -14.9339 17.0383 14.0231 -15.2513 17.3151 14.2111 -14.1108 18.8447 
14.3532 -14.7636 18.4247 11.7318 -5.8775 22.1066 11.624 -5.50748 22.2424 
11.6018 -5.7085 21.8167 14.2416 -13.0837 19.7722 14.3765 -13.6036 19.6484 
14.4348 -13.2737 20.1149 14.604 -13.4365 20.4415 14.4912 -12.971 20.5062 
13.402 -13.6613 17.6619 13.257 -13.7938 17.3538 14.3054 -13.8841 19.2241 
14.053 -13.5107 19.0446 13.8543 -12.952 19.0904 13.748 -13.1092 18.8045 
14.512 -14.1427 19.4731 12.3389 -8.51538 18.331 12.4657 -9.02684 18.2977 
12.4841 -8.93591 18.5973 13.5712 -13.5826 18.036 13.2545 -13.0908 17.8173 
12.4076 -15.6215 14.0223 12.1431 -15.6671 13.5371 12.4717 -16.086 13.651 
12.2824 -8.20782 18.7307 12.1718 -7.8248 18.6751 12.2361 -8.09893 18.4351 
11.4347 -13.6502 12.5449 11.416 -13.2322 12.3572 11.3303 -13.6298 12.1284 
11.8712 -15.6919 13.044 11.8763 -15.2034 13.404 12.2933 -15.1129 14.2941 
12.6411 -15.5638 14.4897 11.6401 -15.6547 12.6172 11.8126 -16.0906 12.5904 
13.2756 -15.2621 15.9544 13.64 -15.6418 16.1157 13.4653 -15.1197 16.4776 
13.3098 -14.5912 16.7731 12.9495 -13.4464 17.0735 13.1435 -14.0381 16.9848 
12.8809 -15.4655 15.0151 13.0291 -15.2485 15.5253 12.6839 -15.0037 15.1809 
12.9512 -14.7905 15.8984 11.8787 -10.6582 14.6347 11.9744 -10.0484 14.5878 
11.8959 -10.3119 14.2468 12.5429 -14.4804 15.4117 12.3861 -14.5846 14.9724 
13.1098 -15.9056 14.8442 11.9926 -5.86347 22.9041 11.9576 -5.52494 23.2558 
11.7459 -5.4848 22.7164 12.2329 -13.6284 15.2638 12.4069 -13.884 15.5887 
12.2879 -13.2402 15.6541 13.7873 -12.0375 19.7802 14.0472 -12.5686 19.8269 
14.0651 -12.2735 20.1259 13.2678 -7.33863 24.1241 13.2921 -6.89945 24.6717 
12.9899 -6.79545 24.1014 14.6269 -11.8149 22.3565 14.5036 -11.315 22.4717 
14.5318 -11.6931 22.0463 14.2058 -9.52874 23.9643 14.0304 -8.89997 24.2503 
14.0081 -9.22377 23.7205 14.4591 -10.8939 22.9386 14.3362 -10.7402 22.6224 
14.5371 -12.3709 21.2458 14.681 -12.661 21.3909 14.5375 -12.0185 21.6692 
14.4131 -10.5177 23.3539 14.526 -10.9456 23.3065 12.5098 -7.76349 21.5468 
12.2254 -7.30116 21.3869 12.2711 -7.54765 20.9862 14.2795 -9.3985 24.5926 
14.3286 -9.7983 24.1436 14.4042 -10.0091 24.3368 13.8645 -0.796334 29.5052 
13.9163 -0.272345 29.6636 13.7194 -0.404111 29.2182 14.3471 -10.1229 23.6794 
14.229 -9.02927 25.0052 14.132 -8.91043 24.6651 14.2833 -9.06871 25.376 
14.1777 -8.60087 25.4742 14.0438 -9.68241 23.2153 14.1468 -10.1483 22.8587 
14.2688 -10.1627 23.2701 13.8733 -1.22523 29.5037 13.8058 -1.70969 29.2446 
13.9428 -1.61227 29.6465 13.3126 -2.75756 27.8899 13.3815 -2.15702 28.2402 
13.0992 -2.27338 27.6918 13.9056 -8.43724 24.5427 13.5131 -9.43012 22.0657 
13.5535 -9.89911 21.5285 13.8354 -10.1612 21.9746 14.38 -11.4789 21.7747 
14.0765 -12.0103 20.357 14.3412 -12.548 20.4419 14.126 -11.1894 21.4246 
14.1428 -10.8977 21.8323 14.114 -10.4451 22.3535 14.5016 -12.6211 20.8031 
14.3526 -12.0526 21.0078 11.9766 -6.85436 21.2736 12.1415 -7.0298 21.679 
12.493 -6.92009 22.8431 12.3159 -7.04619 22.2085 12.6872 -7.47209 22.6027 
11.6563 -6.05052 21.4636 11.7817 -6.43848 21.2708 11.844 -6.63576 20.9384 
12.1073 -7.39671 20.5091 11.9255 -6.94073 20.5332 12.0002 -7.27166 20.0787 
13.7859 -7.57337 25.3411 13.7976 -7.2766 25.7959 13.5608 -7.08492 25.2192 
12.4073 -8.17936 20.1833 12.2463 -7.91477 19.7623 12.4412 -8.34468 19.8402 
13.7631 -9.04006 23.2743 12.8447 -8.26496 21.7814 12.8714 -8.58978 21.3133 
13.1903 -8.81515 21.9937 14.1299 -8.11461 25.9944 14.0175 -8.10686 25.4725 
13.815 -10.841 21.0192 14.0707 -11.3955 21.0393 11.557 -5.13636 22.5264 
11.2097 -15.2458 11.6849 11.1763 -14.7418 11.7823 11.1419 -14.9761 11.4664 
11.5496 -3.14202 24.5497 11.7559 -3.38572 24.8397 11.6559 -2.95596 24.9285 
11.1625 -14.2379 11.5293 11.1412 -14.2033 11.1718 11.1224 -14.6275 11.2959 
11.1097 -15.1211 11.1234 11.3458 -15.4454 11.9778 11.329 -15.7888 11.6914 
11.5859 -2.55847 24.9854 11.5768 -2.16807 25.0863 11.4795 -2.46454 24.7006 
11.2037 -14.3216 11.864 11.2378 -13.947 11.8192 11.4811 -15.4658 12.3359 
[...]
POINT_DATA 853
VECTORS velocity double
0.885508 -3.42771 -0.526778 1.06612 -3.45879 -0.600368 1.19322 -3.37429 -0.501044 
1.28407 -3.18319 -0.252623 1.335 -2.86914 0.121575 1.30889 -2.46735 0.492749 
1.17761 -2.00691 0.709902 0.910606 -1.47057 0.760094 0.550068 -0.940286 0.746731 
0.195022 -0.514983 0.825323 -0.131492 -0.201198 1.04996 -0.379035 -0.0311294 1.32671 
-0.516628 0.000391526 1.50031 -0.524862 -0.0857889 1.4518 -0.407067 -0.238321 1.18325 
-0.171894 -0.358815 0.772873 0.175429 -0.333086 0.407277 0.665027 -0.14548 0.218979 
1.2998 0.115209 0.246627 1.99106 0.235984 0.38983 2.52135 0.128914 0.504183 
2.69438 -0.0225704 0.552695 2.4414 0.0444828 0.599105 1.7321 0.485244 0.718727 
0.474275 1.29142 0.87485 -1.00365 2.06408 0.907194 -2.30404 2.43068 0.745673 
-3.26859 2.40378 0.487869 -3.76171 2.24218 0.256915 -3.87981 2.30186 0.0469087 
-3.79212 2.7317 -0.217451 -3.49431 3.28683 -0.504864 -3.07501 3.7014 -0.743633 
-2.61251 3.9639 -0.975423 -2.10966 4.09726 -1.28308 -1.55328 4.0939 -1.72436 
-0.91974 3.87895 -2.23388 -0.218614 3.37664 -2.72919 0.412904 2.55506 -3.02302 
0.835918 1.504 -3.05352 0.973509 0.384035 -2.90215 0.929139 -0.67581 -2.6533 
0.838125 -1.55507 -2.35167 0.756839 -2.17439 -2.03303 0.693621 -2.60432 -1.71374 
0.588955 -2.75493 -1.38649 0.43729 -2.52367 -1.06325 0.244553 -1.86122 -0.715207 
-0.00585842 -0.702748 -0.275819 -0.304967 0.958144 0.299094 -0.582433 2.73662 0.942997 
-0.79632 4.04558 1.57732 -0.931551 4.50394 2.08694 -0.976507 3.9835 2.35076 
-0.917064 2.48997 2.30621 -0.707619 0.303579 1.8789 -0.364607 -1.55252 1.20655 
0.0171327 -2.58824 0.556226 0.369449 -3.08077 0.0447737 0.654874 -3.30269 -0.305631 
0.872407 -3.63021 -0.598775 1.00216 -3.64255 -0.68952 1.17525 -3.71502 -0.823465 
1.23347 -3.61183 -0.750165 1.34112 -3.46174 -0.661101 1.37642 -3.2299 -0.438517 
1.42455 -2.91933 -0.286222 1.39101 -2.63039 -7.96398e-05 1.3112 -2.15679 0.190299 
1.16091 -1.76953 0.377024 0.95555 -1.28922 0.376435 0.713722 -0.903386 0.445798 
0.364664 -0.413379 0.542184 0.11039 -0.151608 0.695961 -0.159217 0.182756 0.867881 
-0.332496 0.263386 1.08493 -0.545203 0.435894 1.32172 -0.658284 0.49246 1.45013 
-0.705243 0.498962 1.44769 -0.653668 0.35801 1.37519 -0.532633 0.236801 1.13961 
-0.386707 0.171781 0.925781 -0.148379 0.166502 0.688972 0.130599 0.15042 0.542075 
0.579652 0.253642 0.488134 0.895618 0.374333 0.568329 1.41362 0.429828 0.648013 
1.78018 0.453912 0.760953 2.15734 0.35673 0.784421 2.07051 0.412201 0.85023 
2.06933 0.381741 0.8181 1.69716 0.590232 0.870221 0.97936 1.02305 0.972792 
0.162683 1.48306 1.05321 -0.628371 1.87247 1.06086 -1.43533 2.16482 1.02845 
-2.17061 2.25695 0.979877 -2.66104 2.23407 0.879584 -3.01255 2.13507 0.768546 
-3.2352 2.11062 0.604132 -3.24856 2.22512 0.409203 -3.10697 2.40138 0.277362 
-2.88297 2.69936 0.0936477 -2.72182 2.93654 -0.0503757 -2.42362 3.26334 -0.276354 
-2.16773 3.32618 -0.334144 -1.76133 3.47131 -0.651145 -1.48524 3.48239 -0.896766 
-0.989982 3.36057 -1.34829 -0.618695 3.14524 -1.62025 0.0472886 2.60597 -2.12141 
0.432405 2.17864 -2.39457 0.913462 1.33581 -2.61253 1.13605 0.707472 -2.66666 
1.26147 -0.295558 -2.65178 1.23892 -0.924649 -2.58233 1.14811 -1.72844 -2.4128 
1.0676 -2.2083 -2.24826 0.963519 -2.51268 -2.062 0.888736 -2.83545 -1.83553 
0.766817 -3.00748 -1.55192 0.681503 -3.10607 -1.30315 0.523484 -2.90262 -1.03915 
0.340798 -2.53667 -0.720176 0.0969057 -1.6589 -0.346736 -0.128356 -0.720732 0.0476054 
-0.352856 0.565468 0.457209 -0.518525 1.57674 0.812825 -0.693203 2.8077 1.24665 
-0.788912 3.18019 1.54719 -0.869698 3.57754 1.82664 -0.90929 3.39176 2.022 
-0.876006 2.38102 2.04108 -0.795548 1.2389 1.95581 -0.589238 -0.367409 1.54542 
-0.410622 -1.34325 1.24552 -0.0688993 -2.46629 0.662632 0.173365 -2.92973 0.304441 
0.469411 -3.34343 -0.125595 0.628238 -3.4458 -0.313718 -0.776781 2.11171 1.62154 
-0.682109 1.99835 1.28385 -0.656749 0.479465 1.52762 -0.412533 0.139566 0.718661 
-0.58917 0.730216 1.19088 -0.248519 -1.83912 0.865191 0.0325234 -1.99009 -0.0149695 
-0.29078 -1.1932 0.716041 0.285364 -3.19398 0.0632374 0.517251 -3.21769 -0.749591 
1.12712 -3.92604 -0.995813 0.762816 -3.74035 -0.581546 1.15589 -3.32122 -1.82984 
0.891627 -3.52526 -1.35896 0.31284 1.36857 1.18223 1.33374 -0.173422 -1.99997 
1.52763 -1.53869 -2.23307 0.203223 -2.90927 -0.0174134 1.34324 -2.87709 -2.09568 
1.22104 0.885504 1.07748 -0.777108 1.8486 1.21723 1.50939 -2.43991 -0.698457 
1.50489 -3.30161 -0.97345 1.38801 -3.80259 -1.16959 -0.391164 0.842975 0.789658 
-0.904492 1.14669 1.33286 -0.407917 3.22858 -2.12124 0.557965 1.25736 -1.48003 
-2.13671 3.66143 -0.725024 1.11484 0.542185 -2.81654 1.09765 0.851666 1.15094 
-1.58069 1.89171 1.28675 1.23999 -1.46088 -0.309213 0.113527 0.34199 0.330259 
-1.22098 2.67615 0.0289279 -1.74899 2.63175 0.383834 0.859174 -0.744292 -0.0445958 
1.38901 -0.357725 -2.42942 -0.446738 2.33876 -0.773575 -0.743897 1.12443 1.17631 
-0.479295 0.818924 0.914587 0.688894 -3.68542 -0.706597 -0.104059 2.33905 -1.43874 
-1.64488 2.92439 0.0292371 0.105947 1.35821 1.3154 0.588189 0.844694 1.1199 
-1.94596 1.74263 1.21321 -0.80331 0.994636 1.15061 -2.05473 2.21494 0.629264 
0.0503021 0.748161 0.912619 -2.11019 1.82685 0.930951 1.58482 -1.59541 -1.73115 
1.05661 -3.92225 -1.20454 -0.426343 1.33744 1.40697 0.939634 0.872989 -1.96233 
1.16997 -0.396898 -1.1684 -2.0046 2.56187 0.39629 -0.890093 2.65913 -0.443865 
0.196227 1.06624 -0.499989 -1.14859 2.06964 0.805366 1.61961 -2.66148 -1.60668 
-1.30591 1.88415 0.970077 -0.73491 1.80192 0.477142 1.55347 -3.3736 -1.53268 
1.47929 -3.55666 -1.69531 -0.548057 0.686515 0.965089 -0.990459 1.38206 1.05862 
-0.800267 0.85999 1.28799 -1.05036 1.5281 1.17722 0.620353 0.651819 0.883832 
-0.257773 1.03421 1.19484 -0.969548 1.31308 1.14936 -0.0327572 0.579317 0.763597 
-0.567262 1.03976 1.01015 -1.31721 1.59674 1.02241 -2.47553 1.88529 0.915077 
-1.44926 1.5153 1.24025 -2.32523 2.1254 0.647849 -0.312502 1.4359 0.0921955 
0.535185 -0.0506044 -0.0745139 0.830407 -0.0692126 -0.676375 -1.48615 1.89903 0.904376 
1.45745 -1.43298 -1.11677 -0.920868 1.36059 1.24367 -0.93183 1.78886 0.844031 
1.51798 -2.57413 -2.08022 1.32795 -3.84835 -1.54767 -0.742048 1.30024 1.35727 
-1.25277 2.04802 0.905023 -0.132023 -0.137464 0.68334 -0.247111 0.1258 0.77256 
-0.0101417 -0.0726983 0.574821 -0.529701 3.22069 -1.88779 -0.39106 2.79331 -1.51655 
-0.272884 2.85553 -1.82966 -0.0238827 0.142304 0.61044 0.183512 -0.100995 0.44779 
0.395072 -0.0407099 0.370789 0.400229 -0.255427 0.287347 -0.26738 -0.119629 0.84562 
-0.0123063 -0.370044 0.572241 -0.184586 2.95434 -2.14774 -0.0679021 2.96803 -2.41042 
-0.358257 3.34419 -2.3918 -0.600111 0.28577 1.26941 -0.459539 -0.0231488 1.1519 
-0.537932 0.050936 1.30936 -0.481655 -0.157941 1.34471 -0.582571 0.113798 1.40989 
-0.26388 0.446373 0.78047 -0.145525 0.439357 0.728088 -0.365824 -0.0837349 0.990436 
-0.471713 0.212371 1.03873 -0.646653 0.579478 1.15227 -0.589192 0.549771 1.07059 
-0.30347 -0.310424 0.984943 -2.27392 3.30026 -0.303703 -2.07732 2.94912 0.053207 
-1.97517 3.00456 0.00134449 -0.353278 0.41392 0.839159 -0.519739 0.752254 0.930603 
1.96947 0.324227 0.566082 2.19367 0.291871 0.617318 2.29036 0.204613 0.455506 
-2.17231 3.51061 -0.539054 -2.33644 3.80808 -0.846621 -2.38166 3.60888 -0.621075 
0.699523 1.12647 1.21144 0.234689 1.3682 1.2469 0.706669 1.16159 1.15337 
2.37574 0.230441 0.649809 1.98071 0.422047 0.793721 1.59566 0.453431 0.71055 
1.73051 0.321725 0.505718 2.46255 0.178377 0.669381 2.65996 0.0414134 0.53519 
0.928988 0.144924 0.346114 0.966369 -0.0144894 0.20708 0.6625 0.0504532 0.334476 
0.354787 0.183239 0.48678 -0.244807 0.670837 0.827139 0.0521815 0.392043 0.656623 
1.43988 0.285814 0.439777 1.1163 0.250793 0.420574 1.16285 0.388173 0.579084 
0.76023 0.31718 0.519817 -2.27889 1.81524 1.05134 -2.82875 1.99296 0.784633 
-2.68516 1.9574 0.908562 0.783348 0.514744 0.727063 1.00672 0.545435 0.779671 
1.65259 0.206309 0.315892 0.270113 2.06061 -1.84914 0.4979 1.76954 -1.97947 
0.218048 2.42835 -2.24188 0.245674 0.819727 1.04272 0.350851 0.691114 0.898899 
-0.10948 0.909197 1.0699 -0.859505 1.00289 1.32912 -0.730574 0.623989 1.33331 
-0.772607 0.718217 1.3887 0.406762 0.427834 -0.278525 0.656197 0.0237657 -0.391582 
0.538582 0.538512 -0.654186 -0.462848 0.000981473 1.43542 -0.463957 0.186195 1.33844 
-0.536613 0.213113 1.43175 -0.0225814 0.0223394 0.767932 0.127934 0.012264 0.558516 
-0.0522538 0.276414 0.643777 -0.358935 0.126148 1.20754 -0.437853 0.373122 1.18773 
-0.605625 0.200295 1.4985 -0.537041 -0.0312781 1.50671 -0.580918 0.21767 1.48397 
-0.247371 0.046066 1.08109 -0.269058 -0.0966013 1.19321 -0.660137 2.49272 -0.598736 
-0.72472 2.88074 -1.05159 -0.958361 3.03639 -0.905367 0.148089 -0.327647 0.762582 
-0.00234955 -0.169452 0.857752 0.0287262 -0.345362 0.919388 1.26249 -3.79974 -0.963833 
1.17084 -3.82942 -0.923096 1.27547 -3.91944 -1.13723 -0.144672 0.00161729 0.954912 
0.290926 -0.491147 0.698456 0.227805 -0.258385 0.612392 0.36951 -0.713383 0.768456 
0.456179 -0.696125 0.650396 -0.235844 0.455137 0.81113 -0.362789 0.495078 0.989669 
-0.25352 0.234385 0.980105 1.29916 -3.71025 -0.898053 1.37444 -3.6294 -0.908947 
1.2914 -3.57055 -0.737848 1.58153 -3.0376 -1.27517 1.54289 -3.3822 -1.31232 
1.59218 -3.07295 -1.57519 0.275965 -0.0807104 0.407511 -0.555382 1.33027 0.659042 
-0.732901 1.44246 0.873746 -0.607273 1.04505 1.00791 -0.611594 0.464633 1.40468 
-0.796852 0.799432 1.40844 -0.678606 0.409408 1.42482 -0.71237 0.811436 1.34776 
-0.633833 0.749732 1.26817 -0.506933 0.67333 1.11044 -0.622049 0.223104 1.46325 
-0.692061 0.495866 1.4687 -0.777403 3.24174 -1.49975 -0.541659 2.78953 -1.23577 
0.0583831 1.72898 -0.977818 -0.259304 2.29248 -1.06882 -0.140381 1.74343 -0.596447 
-0.616792 3.53075 -2.20044 -0.764914 3.49297 -1.89483 -0.996929 3.65162 -1.77548 
-1.2538 3.46107 -1.13273 -1.26793 3.75461 -1.55672 -1.54733 3.80344 -1.30702 
0.627847 -0.513513 0.199252 0.778259 -0.801434 0.202212 0.722764 -0.408855 -0.0984294 
-1.36197 3.11107 -0.4697 -1.64683 3.47882 -0.744433 -1.51976 3.14422 -0.364442 
-0.152645 0.647242 0.533143 -0.582797 2.05841 -0.14007 -0.794169 2.2188 0.0338951 
-0.539701 1.65258 0.283992 0.638955 -0.945604 0.623628 0.541429 -0.638078 0.473181 
-0.831231 1.21906 1.23662 -0.774672 0.886508 1.38285 0.13591 2.7871 -2.59291 
2.28175 0.213205 0.710409 1.87273 0.492746 0.856044 2.06524 0.331568 0.743988 
1.12259 0.668229 -2.7693 1.26557 0.225214 -2.54719 1.24164 0.172009 -2.66134 
1.38176 0.783163 0.924407 1.32803 0.787759 0.852908 1.75042 0.523172 0.79286 
2.15071 0.213749 0.648431 2.41428 0.162146 0.69113 2.62019 -0.0293975 0.569322 
1.1868 0.142604 -2.74384 1.13315 0.0272731 -2.77618 1.05222 0.541341 -2.88186 
1.46958 0.745127 0.970696 1.07276 0.975401 1.0399 2.39579 0.207637 0.714478 
2.10481 0.380462 0.827534 0.819245 1.10212 0.912551 1.17061 0.8546 0.802428 
0.216254 1.44179 1.12204 0.552996 1.26955 1.01262 0.653748 1.2095 1.08554 
1.71899 0.604447 0.940229 2.1289 0.37894 0.823333 0.30651 1.40549 0.974691 
-0.215606 1.67783 1.06368 -0.182112 1.66992 0.987808 -0.275054 1.71686 0.913711 
-0.765628 1.9494 0.99269 -1.83291 2.30246 0.915234 -1.68726 2.30468 0.84801 
-1.30581 2.15926 0.965904 -1.02723 2.02906 1.06147 -0.131342 1.57447 1.22105 
-0.258539 1.67418 1.1451 0.691063 -3.58383 -0.423868 0.844975 -3.71873 -0.621749 
0.747567 -3.55121 -0.461827 1.16454 0.883352 1.1339 1.6838 0.6291 0.978538 
1.66225 0.626755 0.994989 -0.708517 1.8789 1.12849 -1.21089 2.05167 1.12026 
-2.8381 2.45529 0.618264 -2.32677 2.36866 0.840665 -2.73859 2.37099 0.749458 
-2.47842 2.25241 0.923605 -2.94588 2.31316 0.721957 -2.81438 2.19235 0.843538 
-3.26118 2.27616 0.596549 0.456793 -3.39268 -0.380105 0.375079 -3.13715 -0.385712 
0.61182 -3.50465 -0.732348 -3.57582 2.31631 0.366128 -3.46738 2.22432 0.497221 
-1.77983 2.22694 1.01926 -1.87139 2.09663 1.14298 -1.52525 2.08701 1.15011 
-1.14759 1.88533 1.28163 0.967775 -3.87988 -0.839403 0.979133 -3.78885 -0.764714 
-0.383285 1.61889 1.30231 1.19616 -2.48371 -2.20671 1.26308 -3.12233 -1.98877 
1.13614 -2.74848 -2.08404 -2.56088 3.60806 -0.614629 -2.23945 2.91826 0.0586912 
-1.8673 2.60186 0.394482 -2.8535 3.86014 -0.865818 -2.7503 3.49684 -0.523327 
-2.9393 3.3071 -0.390896 -2.59145 3.12993 -0.182126 -2.16151 3.86905 -0.970189 
-1.95518 3.59179 -0.706213 -1.91964 3.75714 -0.942475 -2.83022 2.818 0.0170841 
-2.49485 2.47528 0.352253 -2.40472 2.56955 0.302382 -1.7771 3.80558 -1.10494 
-1.83388 4.11443 -1.49097 -1.25334 4.02162 -1.9738 -0.732307 1.35843 1.60051 
-0.789639 1.53441 1.81837 -0.824935 2.14631 1.82932 -0.604605 1.76723 1.05348 
-0.691674 2.46856 1.2633 -0.618842 2.25924 1.05171 -0.245882 -0.467059 0.335819 
-0.376479 0.393346 0.552474 -0.267933 0.0362866 0.296879 -0.576287 3.67385 -2.49289 
-2.36961 4.04296 -1.10959 -0.934502 1.58147 1.07104 -1.03748 1.9301 0.837202 
-1.04569 1.76551 1.03187 -0.421805 0.977083 0.601076 -0.49478 1.01521 0.811494 
-3.64298 2.30948 0.203156 -3.64303 2.21978 0.313669 -3.2872 2.15326 0.494756 
-2.53402 1.96249 1.00501 -2.36571 2.02005 1.07102 -1.78499 1.79706 1.27914 
0.121237 -2.53182 -0.0137093 -0.0552535 -2.17139 0.360546 -0.129367 -1.65843 0.362036 
-3.5858 2.20056 0.408156 -3.8532 2.22692 0.154472 -3.8592 2.47735 -0.0751954 
-3.59055 2.44766 0.098325 -3.14568 2.10896 0.689129 -3.17698 2.93409 -0.155157 
-3.11129 3.14208 -0.296411 -3.2871 3.5051 -0.620002 -3.02939 2.58807 0.144746 
-3.3746 2.7894 -0.0989995 -3.67222 3.01973 -0.368843 -3.49994 2.59603 0.0102019 
-0.684945 1.3613 1.40708 -0.61478 0.575958 1.32695 -3.17234 2.29514 0.355829 
-0.475247 -0.127691 1.00529 -0.513905 0.439787 0.990279 -0.346577 -0.610924 0.704484 
-1.67249 1.71044 0.998523 -1.8686 1.89124 0.867601 -2.21377 1.96366 0.79367 
0.447421 -2.78442 -0.892222 0.525408 -3.04004 -0.928252 0.397893 -2.84671 -0.689996 
-0.639683 1.34263 1.24169 -0.572432 1.15811 1.03961 -2.32478 1.85652 0.922607 
-2.73228 2.05071 0.674438 -2.84451 2.03333 0.695181 -1.71305 3.23576 -0.356105 
-1.43706 2.82263 0.0379258 0.646199 -3.23643 -1.09644 0.601774 -3.0309 -1.16494 
0.121979 2.99678 -2.91504 0.407811 2.42905 -2.73742 -1.93531 3.16007 -0.176305 
-1.93333 3.36117 -0.421012 0.935472 -1.38272 0.561665 0.843874 -1.12043 0.434509 
0.802304 -1.19103 0.613676 0.731488 -1.1921 0.750174 1.22725 -0.970795 -0.762474 
1.01592 -0.259972 -0.914412 1.06582 -0.764038 -0.537553 1.0581 -1.64429 0.583492 
1.06881 -1.53522 0.375015 1.16696 -1.88731 0.544277 1.0642 -1.75182 0.752363 
1.1423 0.377101 -1.96406 1.12887 0.650954 -2.33303 0.938254 1.10581 -2.29219 
1.30993 -2.32445 0.374021 1.24645 -2.09892 0.477244 1.25841 -2.2449 0.623236 
1.46961 -2.79606 -0.460079 1.4332 -2.57427 -0.244089 1.41206 -2.77078 -0.141821 
1.33274 -2.67346 0.323976 1.36836 -2.75052 0.0906626 1.3508 -2.55628 0.238138 
1.37028 -2.42277 0.0697778 1.23851 -1.93868 0.283237 1.42905 -3.28905 -0.649454 
1.46816 -3.07576 -0.605853 1.40602 -3.09452 -0.36928 1.40726 -1.95826 -0.473878 
1.30955 -1.9304 -0.0593333 1.39919 -2.261 -0.197865 0.999705 1.10493 -2.85292 
0.869707 1.50474 -2.87236 1.05798 0.96297 -2.64495 0.710091 1.51224 -2.17223 
0.685555 1.79759 -2.53888 -0.728281 2.05324 1.44267 0.673716 1.964 -2.83371 
0.653968 2.05542 -3.06593 1.00273 0.947014 -2.92359 1.39352 -0.846237 -2.48123 
1.33613 -0.347965 -2.56158 1.48116 -0.972738 -2.31924 1.38079 -2.91043 -0.091077 
1.41007 -1.2845 -2.4249 1.25564 -0.55918 -2.62975 1.58341 -1.61045 -2.01576 
1.51508 -0.977992 -2.11847 1.42043 -3.46321 -0.81853 1.46341 -3.58278 -1.1044 
0.93585 0.955775 -2.99741 1.35618 -3.06868 -0.194574 1.53556 -2.91409 -0.877649 
1.19924 -1.69723 0.11942 1.10175 -0.271999 -2.74233 1.33127 -3.21277 -0.335988 
1.3155 -3.04331 -0.0798526 1.07875 -1.36583 0.108364 1.26681 -3.42503 -0.559154 
1.30502 -3.32436 -0.454698 1.24342 -3.29385 -0.39515 1.74384 0.561464 0.944174 
1.21002 -3.67018 -0.797434 1.21222 -3.50046 -0.632491 1.15849 -3.54636 -0.672115 
1.13401 -3.42609 -0.568054 1.36737 -3.3463 -0.560819 1.03023 -3.56179 -0.657857 
1.09044 -3.69135 -0.765435 1.12055 -3.60013 -0.710218 0.945439 -3.53795 -0.605955 
0.869036 -3.51774 -0.549148 0.951831 -3.65421 -0.665391 0.98175 -3.45809 -0.58495 
1.20566 -1.36756 -2.50154 1.40032 -1.73554 -2.36443 1.34833 -2.09933 -2.31348 
0.77706 -3.37615 -0.433284 0.769056 -3.46964 -0.453785 1.56642 -3.10119 -1.77326 
1.59604 -2.65372 -1.86843 1.51194 -3.17789 -1.87643 1.44316 -3.2964 -1.89807 
1.42854 -2.73668 -2.11588 1.05288 -3.77564 -0.802548 0.639632 -3.37998 -0.30744 
0.518788 -3.20509 -0.145358 0.516399 -3.28581 -0.157269 0.58204 -3.51924 -0.301576 
0.555776 -3.40919 -0.231277 0.418931 -3.21996 -0.0369602 0.321052 -3.15455 0.0855373 
0.260031 -3.01341 0.187815 0.549622 -3.54994 -0.312331 0.404656 -3.32559 -0.0616439 
-0.0408215 -2.5067 0.638769 0.0693074 -2.76085 0.453738 0.102147 -2.77749 0.419953 
0.199982 -2.88436 0.279751 -0.393309 -1.43776 1.23881 -0.253212 -1.9401 0.965756 
-0.208377 -2.08202 0.912305 -0.173731 -2.15901 0.868318 -0.545297 -0.736768 1.55231 
-0.549024 -0.693298 1.52886 0.0298818 -2.6835 0.427874 0.068745 -2.78643 0.422145 
-0.132137 -2.29177 0.731259 1.6212 -2.16444 -1.64515 1.58188 -2.10236 -1.25951 
1.59574 -2.60052 -1.2289 0.210371 -3.03502 0.226946 0.72337 -3.4756 -1.05765 
0.816961 -3.69692 -1.03464 0.249394 -3.10661 0.0248225 -0.0150282 -2.47362 0.410051 
1.53834 -2.05096 -2.15976 0.567646 1.11812 1.27245 -0.463416 -0.991638 1.27585 
-0.336616 -1.60395 1.07887 -0.504352 -0.878408 1.40318 0.95886 -0.165663 -2.78554 
1.07152 -0.715033 -2.65467 1.03076 -1.18089 -2.53687 -0.477542 -0.45967 1.11989 
0.984549 -1.55816 -2.41931 0.890343 -1.14374 -2.50965 0.966866 -1.89433 -2.30467 
1.09122 -1.95914 -2.33672 -0.208995 -1.0141 0.379634 -0.0787638 -1.27833 0.0555924 
0.902919 -2.09011 -2.19329 1.01442 -2.3774 -2.15556 0.928825 -3.90315 -0.897476 
1.10153 -3.97543 -1.10966 0.824695 -2.50897 -1.93811 0.864683 -2.33009 -2.06211 
0.940905 -2.70026 -1.95818 0.763072 -3.30151 -1.31005 0.732203 -3.75915 -0.64315 
0.885248 -3.84589 -0.974889 0.788339 -1.88294 -2.19192 1.26584 -2.2867 -2.27674 
0.828654 -2.9686 -1.67737 0.735474 -2.81706 -1.63651 0.781725 -2.67548 -1.79557 
0.727362 -2.41811 -1.87329 0.641092 -2.94265 -1.34961 0.684951 -2.89186 -1.48861 
0.730958 -3.07642 -1.43282 0.281687 -2.76729 -0.377526 0.65149 -2.725 -1.55416 
0.561505 -2.85534 -1.20928 0.227145 -2.41095 -0.427079 0.0751485 -1.82246 -0.222613 
0.206286 -2.11693 -0.507547 0.396109 -2.53119 -0.905204 0.481387 -2.72667 -1.05484 
-0.267306 -1.56607 0.791839 0.348224 -2.25424 -0.896677 0.293472 -2.22323 -0.732627 
0.172083 -1.7677 -0.53147 0.0514936 -1.2474 -0.32831 0.126356 -1.344 -0.510635 
1.04256 -3.50787 -1.59807 0.931561 -3.22493 -1.6513 1.01606 -3.09693 -1.82745 
0.513973 -2.6817 -1.2224 -0.471097 -0.779797 1.21461 1.42019 -3.71303 -1.64066 
1.36454 -3.4718 -1.83744 -0.770365 0.885735 1.95948 -0.704171 0.431684 1.77159 
-0.648469 -0.0609633 1.70576 -0.61589 -0.0701534 1.54146 -0.84004 1.79771 2.01207 
-0.746967 0.947806 1.79428 -0.857887 1.80928 2.12908 -0.909349 2.55633 2.20697 
-0.83444 1.44517 2.14073 -0.856206 2.77911 1.85208 -0.899233 2.95127 2.0385 
-0.938772 3.20746 2.2247 -0.946137 3.7132 2.18402 -0.932284 3.98921 2.08766 
-0.901016 4.04716 1.94444 -0.890244 3.46787 1.92179 -0.837098 2.95341 1.74394 
-0.965214 4.36648 2.25197 -0.875175 4.391 1.85872 -0.851487 3.91301 1.75466 
-0.962214 3.3526 2.37312 1.23653 0.355604 -2.41439 -0.789518 2.72269 1.58418 
-0.748661 2.65303 1.44247 -0.202558 0.000848477 0.126589 -0.328766 0.678943 0.379272 
1.05352 -2.84817 -1.98417 -0.15123 0.0664282 -0.0054154 -0.0681261 -0.694379 -0.119046 
-0.428277 1.38379 0.581781 -0.0048515 -1.27939 -0.163768 -0.798295 3.60436 1.56896 
-0.738413 3.38341 1.37709 -0.750224 3.087 1.41827 -0.82878 3.37672 1.68076 
-0.542612 2.113 0.845341 -0.649678 2.82512 1.12081 -0.697723 3.4812 1.26507 
0.831112 -3.21962 -1.50319 -0.451596 1.88001 0.619587 1.46187 0.637711 0.976698 
0.504593 -3.51301 -0.334794 -2.28747 2.12054 1.05548 1.12423 0.601625 0.869014 
1.25744 0.638327 0.939216 0.816674 0.868218 1.16221 1.5365 -1.544 -1.39885 