# vtk DataFile Version 3.0
vtk output
ASCII
DATASET POLYDATA
POINTS 853 float
14.5215 -0.743181 30.401 14.4614 -1.72559 30.2134 14.4413 -2.71962 30.032 
14.4451 -3.73697 29.7834 14.4451 -4.82805 29.4422 14.46 -5.92371 28.9517 
14.4498 -6.95283 28.2342 14.4139 -7.95754 27.2483 14.4026 -8.88964 26.1391 
14.4107 -9.72733 25.1104 14.4363 -10.574 24.1409 14.4758 -11.4186 23.2451 
14.5168 -12.2681 22.3398 14.5107 -13.116 21.345 14.4537 -13.898 20.3163 
14.4201 -14.604 19.1698 14.2985 -15.144 17.9796 14.0947 -15.5238 16.785 
13.8445 -15.765 15.5577 13.4574 -15.9559 14.3524 12.9429 -16.0954 13.2453 
12.4026 -16.0078 12.2535 11.9536 -15.5156 11.5243 11.6299 -14.524 11.152 
11.3427 -13.0597 11.0882 11.0788 -11.5168 11.3093 10.9892 -10.2455 11.7809 
11.179 -9.29479 12.4872 11.5227 -8.58419 13.3921 11.6584 -7.96052 14.39 
11.4845 -7.37883 15.3735 11.3037 -6.96911 16.297 11.2898 -6.72507 17.151 
11.3546 -6.48954 17.9788 11.3952 -6.14398 18.8004 11.3826 -5.61662 19.5827 
11.3689 -4.96445 20.3462 11.3978 -4.18913 21.1609 11.4975 -3.4032 22.0521 
11.6226 -2.6313 23.0149 11.7916 -1.79356 23.9527 12.0553 -0.95761 24.7478 
12.3764 -0.127646 25.3726 12.6748 0.669109 25.8732 12.9328 1.44407 26.3673 
13.1591 2.32712 26.8267 13.3388 3.3015 27.258 13.5095 4.3179 27.7202 
13.7445 5.43167 28.2169 14.0967 6.71237 28.7532 14.5409 7.96849 29.3212 
15.0295 8.78792 29.9174 15.4616 8.9122 30.4522 15.6934 8.28873 30.8331 
15.7059 6.93099 31.0405 15.5412 5.12286 31.0824 15.2897 3.5059 31.009 
15.0312 2.24049 30.8515 14.79 1.17491 30.7182 14.6148 0.212034 30.5938 
14.4899 -0.336688 29.9953 14.4331 -0.967865 29.9734 14.3822 -1.76953 29.6031 
14.3871 -2.33613 29.6149 14.3555 -3.19796 29.3017 14.3548 -3.88986 29.1969 
14.2937 -4.63985 28.7238 14.33 -5.28089 28.5876 14.2885 -6.10782 27.9677 
14.3074 -6.82079 27.5023 14.2123 -7.40995 26.709 14.2097 -7.99598 26.0816 
14.196 -8.71619 25.1836 14.2456 -9.32105 24.5871 14.1826 -9.81114 23.8247 
14.2469 -10.41 23.3594 14.2195 -11.0431 22.5663 14.1758 -11.6006 21.8873 
14.1345 -12.1477 21.0933 14.1084 -12.6892 20.5929 14.0145 -13.2871 19.6972 
13.8611 -13.6754 18.9978 13.6972 -14.0295 18.0767 13.5554 -14.3737 17.4085 
13.3272 -14.668 16.4378 13.102 -14.727 15.769 12.9304 -14.9806 14.8987 
12.6683 -15.0386 14.1091 12.3757 -15.2097 13.2389 12.1106 -14.9433 12.753 
11.8748 -14.884 12.1746 11.6594 -14.4008 11.8558 11.4556 -13.5764 11.7219 
11.2739 -12.717 11.7414 11.0913 -11.9116 11.7666 10.9716 -11.1248 12.0023 
10.9132 -10.4334 12.5689 10.9283 -9.94646 13.0287 10.9947 -9.52028 13.7163 
11.1414 -9.11452 14.3821 11.2489 -8.72137 15.1953 11.3529 -8.51184 15.8424 
11.4258 -8.24017 16.5956 11.5266 -8.00892 17.1146 11.6355 -7.65115 17.916 
11.7455 -7.56935 18.4465 11.8126 -7.09199 19.3209 11.7857 -6.76649 19.8098 
11.794 -6.16168 20.5497 11.7713 -5.80718 21.0431 11.823 -5.03469 21.8623 
11.8376 -4.51554 22.3441 11.9449 -3.81394 23.1285 11.9842 -3.3331 23.6794 
12.0924 -2.47786 24.5021 12.2442 -1.94883 24.9628 12.4425 -1.15686 25.5601 
12.6153 -0.573301 25.9268 12.7125 0.101536 26.2172 12.9492 0.661629 26.5471 
13.1377 1.44309 26.8917 13.3472 1.92201 27.2445 13.4546 2.71437 27.5067 
13.6614 3.41073 27.8252 13.8288 4.43269 28.1649 14.0581 5.22221 28.5181 
14.2699 6.22475 28.8778 14.4873 6.95007 29.1893 14.7836 7.82286 29.5753 
14.9993 7.9885 29.8803 15.2244 8.19053 30.167 15.3787 7.91354 30.4272 
15.4048 6.9852 30.6096 15.4003 5.99724 30.7787 15.243 4.71447 30.6549 
15.1811 3.84437 30.7043 14.9687 2.68516 30.5196 14.8293 1.92455 30.5272 
14.6657 1.09053 30.2276 14.5961 0.52276 30.2519 15.0646 6.96708 30.0566 
14.815 7.0556 29.6646 15.054 5.55942 30.2752 14.4838 5.68247 29.2159 
14.7766 5.96902 29.7285 14.8494 3.61176 30.1418 14.1411 3.94008 28.698 
14.5884 4.43175 29.5212 14.5943 1.93783 29.8823 13.8092 2.34231 28.1617 
14.2229 -0.908879 29.162 14.3735 0.4885 29.5438 13.1856 -0.320447 27.0387 
13.4903 0.96319 27.6099 11.3756 -12.8948 12.3908 12.6612 -4.43953 24.4417 
12.7427 -3.07152 25.4986 14.3435 2.73201 29.17 13.0406 -1.46104 26.5242 
11.6638 -13.8608 12.5566 11.1202 -11.8154 12.4765 13.9679 -4.94478 27.4254 
14.0886 -3.65732 28.2368 14.1096 -2.32527 28.65 13.74 -9.42408 22.9152 
13.5093 -11.354 20.4329 11.599 -5.11573 21.15 12.5376 -5.71079 23.1624 
11.6214 -6.95842 18.6757 11.8524 -2.63236 23.8346 11.9396 -13.8874 13.6378 
11.0987 -11.0821 13.5078 13.9245 -6.22988 26.503 13.7896 -8.42156 24.0417 
12.4101 -8.06129 20.351 12.1967 -8.8314 18.7451 13.9024 -7.15432 25.6702 
12.3592 -3.34439 24.546 12.3764 -6.87626 21.7366 13.6651 -10.2969 21.8127 
12.9099 -12.846 17.7055 14.0891 1.26994 28.7713 12.156 -5.96853 21.9919 
12.1538 -8.13483 19.3473 11.52 -12.7725 13.2022 12.2042 -13.6281 14.8382 
11.2085 -10.6186 14.6903 13.2792 -12.1515 19.1487 11.9176 -9.47001 17.2647 
12.5247 -13.384 16.3102 11.5609 -10.0813 16.0066 13.1717 -4.21606 25.7515 
13.8616 0.00816851 28.3946 11.5926 -12.3383 14.3502 12.4073 -4.87948 23.533 
13.1737 -5.66975 24.8547 11.9582 -8.93645 17.9675 12.3434 -7.35113 21 
13.038 -7.08435 23.2847 12.8803 -9.44925 20.3523 13.5093 -3.64364 26.7802 
12.611 -10.4162 18.7775 13.0475 -8.72053 21.6709 13.7129 -2.9252 27.5373 
13.566 -2.1171 27.5077 13.2897 -12.9158 18.4672 12.7142 -11.5508 18.2704 
13.5918 -12.1166 19.9279 13.0338 -10.9863 19.6552 12.5508 -13.9759 15.5266 
12.0759 -12.7129 15.6718 11.9997 -11.6934 16.4765 12.9021 -13.5897 16.9998 
12.427 -12.4407 17.0504 12.2004 -10.9795 17.268 11.2414 -9.84442 15.1982 
11.5606 -11.1027 15.5949 11.6475 -9.43883 16.544 13.1214 -8.06448 22.5773 
13.7117 -7.47783 24.6859 13.3877 -6.49794 24.6152 12.3321 -10.3472 17.9446 
13.4755 -5.22737 25.946 13.4552 -10.5875 20.9444 13.1234 -9.44453 21.1324 
13.0812 -2.50689 26.3397 13.6881 -1.22058 27.9322 11.6768 -12.0231 15.1614 
12.7564 -9.85496 19.7143 14.0885 -14.4186 18.5761 13.81 -13.9457 18.4931 
13.956 -14.5101 18.0816 11.6666 -5.44558 21.0675 11.9448 -5.91896 21.4625 
11.8249 -5.49293 21.5007 13.6484 -14.2108 17.7764 13.9311 -14.8008 17.6466 
13.8239 -14.9688 17.1418 14.189 -15.3484 17.3867 14.1548 -14.1728 19.0845 
14.3816 -14.9018 18.5739 11.6945 -5.04626 21.4825 11.6084 -4.6481 21.535 
11.4933 -4.72365 21.1027 14.0752 -13.0145 20.1588 14.2544 -13.6345 19.9901 
14.2859 -13.2807 20.5105 14.4711 -13.5118 20.8462 14.3271 -12.9579 20.9367 
13.3494 -13.5495 17.9011 13.2413 -13.6856 17.5786 14.2154 -13.9347 19.5114 
13.9302 -13.4664 19.3543 13.6774 -12.7901 19.4458 13.5899 -12.958 19.1336 
14.4404 -14.2658 19.7545 11.7055 -7.61432 18.2229 11.9057 -8.23648 18.3159 
11.9572 -8.13147 18.6008 13.49 -13.4787 18.2905 13.1218 -12.8837 18.112 
13.0442 -15.5448 14.1937 12.8454 -15.599 13.7199 13.2142 -16.04 13.785 
11.6757 -7.24097 18.5458 11.4946 -6.74727 18.3773 11.5538 -7.0913 18.2138 
11.6133 -13.3418 12.9214 11.4417 -12.8498 12.7458 11.5045 -13.3061 12.4825 
12.6273 -15.6414 13.232 12.4992 -15.1002 13.6421 12.8046 -15.0027 14.5137 
13.2078 -15.4887 14.6457 12.421 -15.6204 12.807 12.6638 -16.0938 12.7376 
13.6042 -15.2402 16.0611 13.9859 -15.6626 16.177 13.7122 -15.1264 16.5762 
13.4553 -14.5611 16.9196 12.9005 -13.2696 17.3382 13.1896 -13.9458 17.1883 
13.362 -15.4017 15.1528 13.4116 -15.1964 15.6573 13.071 -14.9135 15.3634 
13.2187 -14.7215 16.0619 11.2213 -10.1657 14.9734 11.1476 -9.49878 14.8318 
11.1054 -9.77101 14.5299 12.8051 -14.3556 15.6434 12.7128 -14.451 15.2193 
13.6635 -15.8604 14.943 12.1104 -5.34141 22.3858 12.1396 -5.08793 22.696 
11.8307 -4.81919 22.0726 12.3186 -13.4176 15.6011 12.5303 -13.7087 15.8788 
12.27 -13.0024 16.0036 13.5478 -11.7433 20.1999 13.842 -12.391 20.241 
13.8475 -12.0667 20.5594 13.4232 -7.28475 24.0511 13.5167 -6.96729 24.5536 
13.189 -6.726 23.9188 14.4971 -11.8409 22.802 14.3754 -11.2817 22.8899 
14.3812 -11.6509 22.4916 14.2138 -9.54974 24.2092 14.0861 -8.92965 24.4282 
14.0121 -9.1725 23.9294 14.3629 -10.8795 23.3184 14.2192 -10.6494 22.9971 
14.365 -12.3313 21.7085 14.5287 -12.6966 21.8537 14.3732 -11.9742 22.1291 
14.3507 -10.5283 23.6958 14.455 -11.0011 23.6815 12.3777 -7.12457 21.4036 
12.0666 -6.54334 21.1002 12.0453 -6.74278 20.7369 14.3354 -9.52551 24.8321 
14.3397 -9.87604 24.4153 14.4227 -10.1406 24.6271 14.2888 -1.96727 29.2229 
14.3148 -1.44 29.389 14.1536 -1.60824 28.8722 14.3162 -10.1477 23.9827 
14.3272 -9.20723 25.2213 14.214 -9.0196 24.8562 14.4032 -9.31394 25.6127 
14.3244 -8.84262 25.6711 13.9932 -9.5736 23.4778 14.0564 -10.0235 23.1754 
14.2077 -10.1165 23.5823 14.3051 -2.37503 29.2472 14.258 -2.84288 28.9849 
14.3674 -2.72156 29.4464 13.8244 -3.73769 27.4897 13.8879 -3.23363 27.8341 
13.6239 -3.26704 27.193 14.0064 -8.50006 24.6705 13.3857 -9.07489 22.2912 
13.3722 -9.50255 21.8174 13.681 -9.8734 22.3003 14.2094 -11.357 22.2134 
13.8525 -11.779 20.7982 14.149 -12.4394 20.8822 13.9302 -10.9605 21.8487 
13.9711 -10.6902 22.2327 13.9815 -10.2643 22.7071 14.3251 -12.5731 21.2536 
14.1567 -11.9181 21.4644 11.7846 -5.96668 20.8386 12.0327 -6.29718 21.3399 
12.5638 -6.51243 22.5888 12.2948 -6.46969 21.928 12.7011 -7.05244 22.4624 
11.4756 -5.01907 20.8008 11.5721 -5.44362 20.7037 11.5666 -5.59396 20.3983 
11.7799 -6.44869 20.1708 11.5717 -5.87495 20.0511 11.567 -6.19866 19.6647 
13.9888 -7.7733 25.3938 14.042 -7.56272 25.8456 13.7961 -7.26576 25.1805 
12.0674 -7.35226 20.0562 11.8073 -6.96665 19.5323 12.0544 -7.5063 19.7404 
13.7445 -8.88483 23.4544 12.7323 -7.74068 21.7767 12.6986 -8.01406 21.3583 
13.0798 -8.38714 22.1119 14.3297 -8.43371 26.1795 14.1912 -8.33522 25.6116 
13.5924 -10.4926 21.4133 13.8563 -11.1416 21.4743 11.595 -4.31752 21.7649 
11.9243 -15.2063 11.8803 11.7454 -14.618 12.0285 11.7809 -14.902 11.6723 
11.8945 -2.95942 23.7219 12.1581 -3.37614 24.0745 12.0473 -2.93971 24.1261 
11.5609 -14.0254 11.7991 11.523 -13.989 11.4157 11.6513 -14.4954 11.5183 
11.7819 -15.0843 11.2953 12.1073 -15.4195 12.1687 12.163 -15.8198 11.8404 
11.9568 -2.52686 24.1568 11.9301 -2.15138 24.2464 11.7967 -2.28076 23.8351 
11.6323 -14.1215 12.1513 11.531 -13.6769 12.1313 12.2368 -15.425 12.5376 
12.0065 -14.9507 12.4413 11.4043 -13.4173 11.3689 11.4803 -13.8399 11.09 
[...]
POINT_DATA 853
VECTORS velocity double
1.00125 -3.04332 -0.402671 1.16338 -3.20813 -0.39706 1.26043 -3.21746 -0.240499 
1.30587 -3.08226 0.025851 1.29804 -2.81214 0.367649 1.22653 -2.45724 0.653981 
1.08415 -2.04322 0.749372 0.84721 -1.54255 0.690113 0.539838 -1.03257 0.660197 
0.228473 -0.61931 0.781557 -0.06585 -0.318937 1.02468 -0.292975 -0.161207 1.27769 
-0.422449 -0.13247 1.42136 -0.424228 -0.21581 1.34214 -0.285561 -0.370526 1.02043 
-0.007729 -0.483469 0.567358 0.391173 -0.429393 0.244562 0.908789 -0.226168 0.157537 
1.51898 0.0139997 0.246811 2.13884 0.121132 0.365157 2.60776 0.0285187 0.408193 
2.75505 -0.137403 0.38714 2.46274 -0.130243 0.396207 1.61687 0.251915 0.527249 
0.14011 1.05571 0.727111 -1.36748 1.81464 0.70707 -2.46544 2.11315 0.43728 
-3.17241 2.06459 0.180197 -3.48833 1.91288 0.0288652 -3.53173 1.94105 -0.15253 
-3.4608 2.29333 -0.469842 -3.21186 2.74393 -0.803198 -2.79922 3.05283 -1.03247 
-2.31523 3.23384 -1.21093 -1.81891 3.34254 -1.42716 -1.341 3.41502 -1.74559 
-0.837953 3.36208 -2.09836 -0.288941 3.08642 -2.42528 0.243808 2.46731 -2.60572 
0.663091 1.56583 -2.63648 0.883351 0.605679 -2.56222 0.941363 -0.269164 -2.40031 
0.914697 -0.962815 -2.18298 0.867226 -1.45766 -1.94377 0.83889 -1.8549 -1.70115 
0.789325 -2.10265 -1.45719 0.714745 -2.19083 -1.22624 0.599408 -2.06339 -0.979175 
0.390836 -1.47825 -0.664241 0.0583938 -0.0180828 -0.243394 -0.3073 2.24433 0.289315 
-0.562448 4.10506 0.950561 -0.683636 4.66903 1.59267 -0.68455 3.74247 1.91411 
-0.554258 1.31715 1.71597 -0.334075 -1.11783 1.20943 -0.0542685 -2.07708 0.720063 
0.254629 -2.37846 0.289307 0.544086 -2.58492 -0.0483618 0.789017 -2.8023 -0.274261 
1.03109 -3.19649 -0.534739 1.13842 -3.29887 -0.561278 1.30316 -3.48882 -0.649534 
1.33394 -3.43984 -0.535237 1.40109 -3.35739 -0.432937 1.39034 -3.15859 -0.210306 
1.38525 -2.89831 -0.125195 1.31566 -2.62964 0.125268 1.20639 -2.20376 0.204127 
1.06281 -1.84079 0.321048 0.890307 -1.39935 0.257961 0.69244 -1.03028 0.325334 
0.401901 -0.55511 0.466688 0.177136 -0.287604 0.658044 -0.0576247 0.0404016 0.85342 
-0.223775 0.133029 1.06294 -0.421047 0.313966 1.28045 -0.532058 0.384708 1.39553 
-0.579424 0.407397 1.38603 -0.531352 0.265944 1.2937 -0.394253 0.131761 1.02587 
-0.228456 0.0512684 0.797318 0.0371103 0.0242213 0.580686 0.325744 -1.93087e-05 0.465019 
0.756417 0.0835235 0.467118 1.02585 0.179975 0.565847 1.4869 0.230547 0.631501 
1.79283 0.253625 0.708987 2.13828 0.179162 0.682012 2.00958 0.21053 0.726066 
1.99009 0.177605 0.66534 1.53984 0.36011 0.721136 0.695976 0.771563 0.853707 
-0.200024 1.22124 0.95339 -0.994947 1.60132 0.934431 -1.70556 1.85104 0.852212 
-2.2433 1.87903 0.790076 -2.56687 1.82699 0.699072 -2.73588 1.69882 0.639518 
-2.82676 1.64029 0.515593 -2.76212 1.68082 0.342466 -2.58488 1.77132 0.223146 
-2.3503 1.95778 0.0396245 -2.1814 2.12139 -0.107319 -1.87661 2.35215 -0.323389 
-1.59355 2.36298 -0.33718 -1.20861 2.46024 -0.584389 -0.976921 2.47042 -0.77017 
-0.576477 2.39049 -1.10859 -0.284872 2.22194 -1.29936 0.228324 1.8207 -1.70023 
0.516216 1.51775 -1.95055 0.918964 0.834369 -2.20511 1.12821 0.32035 -2.32432 
1.29943 -0.461736 -2.41952 1.32771 -0.940046 -2.40505 1.28471 -1.50463 -2.28672 
1.21968 -1.8203 -2.15168 1.10873 -1.95927 -1.98371 1.05209 -2.19943 -1.80234 
0.953717 -2.32575 -1.57296 0.912197 -2.48516 -1.37962 0.804252 -2.46107 -1.1834 
0.690928 -2.42643 -0.950968 0.509156 -2.12157 -0.684587 0.311207 -1.63341 -0.392507 
0.0597068 -0.569187 -0.0876089 -0.151304 0.554072 0.200302 -0.394794 2.2308 0.596937 
-0.498931 2.72869 0.922309 -0.588898 3.28067 1.24716 -0.604221 2.90004 1.47588 
-0.512621 1.25596 1.44456 -0.403129 -0.253046 1.30624 -0.197188 -1.62996 0.935413 
-0.0553124 -2.09361 0.72132 0.230534 -2.46402 0.316061 0.415305 -2.58388 0.0879348 
0.680489 -2.83168 -0.226857 0.804735 -2.92474 -0.336476 -0.408273 1.00245 1.00274 
-0.31869 0.965525 0.655813 -0.238703 -0.985669 0.914242 0.0319656 -1.11946 0.173278 
-0.163137 -0.650907 0.597062 0.136317 -2.38801 0.408657 0.465172 -2.42605 -0.379694 
0.154764 -2.13838 0.232146 0.576543 -2.83376 -0.159243 0.838659 -2.81665 -0.926788 
1.3128 -3.60923 -0.921462 0.984579 -3.23039 -0.62365 1.37027 -2.94267 -1.82223 
1.12679 -2.95489 -1.40672 -0.000245137 1.06609 1.13078 1.40869 -0.828003 -1.83982 
1.66222 -1.89368 -2.19771 0.577285 -2.81423 -0.311882 1.56391 -2.78233 -2.0916 
0.995985 0.615826 0.996097 -1.04821 1.50635 1.15287 1.45183 -2.55719 -0.726237 
1.54931 -3.29456 -0.869938 1.52832 -3.68425 -1.04551 -0.200266 0.608511 0.813975 
-0.705117 1.03008 1.33087 -0.235042 2.50985 -1.79145 0.77909 0.394565 -1.16378 
-1.65163 2.72255 -0.774453 1.06244 0.420574 -2.48276 0.945242 0.55735 1.11888 
-1.54726 1.4442 1.27269 1.16621 -1.65911 -0.438777 0.247743 0.0672125 0.325215 
-0.645936 1.79776 0.205783 -1.12804 1.82575 0.486529 0.851852 -0.979211 -0.173853 
1.45943 -0.814531 -2.24315 -0.0076479 1.38765 -0.456249 -0.527862 0.93886 1.17761 
-0.303287 0.627677 0.939185 0.972984 -3.17282 -0.828921 0.234905 1.37343 -1.04803 
-1.01647 1.99188 0.14572 -0.103075 0.990977 1.31864 0.555345 0.534948 1.13585 
-1.61409 1.25158 1.26694 -0.615099 0.873735 1.15557 -1.44399 1.52957 0.732768 
0.150728 0.495147 0.954611 -1.57131 1.26679 1.03434 1.63885 -2.02657 -1.77044 
1.29324 -3.49655 -1.22439 -0.430504 0.922255 1.46698 1.06492 0.0898908 -1.64514 
1.21984 -0.95545 -1.15664 -1.37777 1.76523 0.482203 -0.362765 1.69981 -0.188287 
0.452108 0.402353 -0.336222 -0.710357 1.58025 0.897044 1.70628 -2.8715 -1.65548 
-0.888579 1.4801 1.06998 -0.353445 1.2765 0.602213 1.68991 -3.41747 -1.51856 
1.67615 -3.5273 -1.68873 -0.37743 0.548253 0.938275 -0.711015 1.13244 1.14148 
-0.637195 0.772166 1.26323 -0.770149 1.31991 1.22585 0.662268 0.394364 0.900149 
-0.159691 0.698803 1.26595 -0.685572 0.944422 1.26612 0.112037 0.376199 0.771423 
-0.377477 0.777436 1.09105 -0.91189 1.1796 1.15116 -1.98749 1.35091 0.959168 
-1.09388 1.05393 1.3499 -1.7227 1.46737 0.731258 0.00517293 0.875921 0.238763 
0.622105 -0.386326 -0.128763 0.918555 -0.571899 -0.683775 -1.00714 1.40955 1.02641 
1.43504 -1.80057 -1.20757 -0.673805 1.17414 1.25588 -0.568038 1.38564 0.91906 
1.70966 -2.73038 -2.10159 1.54722 -3.6522 -1.53168 -0.595171 0.890867 1.44433 
-0.817388 1.59764 0.992665 0.0516132 -0.263884 0.512629 -0.0715023 -0.00660354 0.643886 
0.189616 -0.201466 0.431125 -0.278053 2.39555 -1.56614 -0.0382523 1.8288 -1.14649 
-0.000831872 1.97338 -1.44615 0.168511 -0.00356002 0.512292 0.398847 -0.222349 0.325915 
0.617695 -0.1617 0.288468 0.634574 -0.340165 0.173984 -0.10453 -0.245901 0.67057 
0.178436 -0.481512 0.375935 -0.0118582 2.21178 -1.7659 0.0100427 2.37745 -2.02705 
-0.290155 2.80059 -2.08277 -0.472325 0.188799 1.17112 -0.329432 -0.141577 1.00624 
-0.421067 -0.0619691 1.18935 -0.37318 -0.288761 1.21165 -0.4724 0.00320235 1.30875 
-0.0910223 0.288304 0.72885 0.0242917 0.269851 0.689554 -0.219409 -0.207466 0.824441 
-0.324112 0.10052 0.917263 -0.495627 0.483215 1.09089 -0.433686 0.443507 1.00641 
-0.163121 -0.44172 0.793828 -1.70811 2.35696 -0.325104 -1.44656 2.03329 0.105343 
-1.34237 2.06692 0.0649988 -0.18272 0.272674 0.767322 -0.344136 0.590517 0.927568 
2.05549 0.169631 0.521254 2.2515 0.144425 0.543827 2.40331 0.0962581 0.397304 
-1.64301 2.55342 -0.57022 -1.92975 2.94836 -0.975182 -1.91332 2.70943 -0.718743 
0.458763 0.809399 1.17699 -0.0376717 1.03548 1.2208 0.424734 0.867294 1.09503 
2.41388 0.0903309 0.544554 1.96768 0.2308 0.71585 1.63726 0.250901 0.678585 
1.84755 0.164838 0.483329 2.48813 0.0364374 0.536592 2.72973 -0.0589943 0.402611 
1.13411 0.00881734 0.330724 1.20577 -0.101576 0.186698 0.882261 -0.0756889 0.293142 
0.547506 0.0257407 0.439365 -0.0879739 0.474068 0.839878 0.218532 0.213617 0.626961 
1.59217 0.131287 0.432594 1.28914 0.0936217 0.414781 1.27484 0.194669 0.573731 
0.91588 0.134672 0.511982 -1.8458 1.30227 1.10116 -2.36786 1.4771 0.772429 
-2.28028 1.46062 0.893682 0.863435 0.287809 0.73301 1.05246 0.310648 0.777838 
1.83793 0.0933748 0.313142 0.502102 1.17228 -1.42857 0.680088 0.926522 -1.5633 
0.356851 1.69188 -1.80665 0.288526 0.528651 1.08166 0.417057 0.433189 0.927824 
-0.0146313 0.614553 1.13108 -0.68193 0.90725 1.31705 -0.590237 0.541984 1.27944 
-0.627609 0.635421 1.34559 0.565612 -0.0492482 -0.244951 0.756792 -0.416504 -0.414719 
0.712811 -0.0689667 -0.562214 -0.371478 -0.131915 1.37055 -0.361718 0.0623835 1.29012 
-0.431579 0.09152 1.37127 0.0623621 -0.118233 0.744928 0.214344 -0.162928 0.523654 
0.0647762 0.0890866 0.634219 -0.263007 0.00201837 1.17321 -0.318416 0.244131 1.15916 
-0.499476 0.0865108 1.42016 -0.440707 -0.162489 1.4142 -0.475001 0.0994175 1.41458 
-0.159933 -0.076943 1.05616 -0.191445 -0.221321 1.15905 -0.176767 1.53917 -0.309146 
-0.262568 1.86301 -0.739994 -0.454229 2.00751 -0.639845 0.197258 -0.444509 0.720683 
0.0628993 -0.288834 0.830722 0.0792431 -0.45584 0.891015 1.39922 -3.61236 -0.804601 
1.3238 -3.57388 -0.789908 1.44646 -3.71405 -1.03335 -0.0623732 -0.12239 0.934016 
0.322956 -0.605275 0.636998 0.282879 -0.399143 0.558422 0.382888 -0.812025 0.702059 
0.465879 -0.805924 0.565035 -0.100321 0.27773 0.81094 -0.226361 0.340142 0.981202 
-0.147287 0.0985662 0.963975 1.4122 -3.55779 -0.710398 1.46689 -3.52326 -0.725094 
1.37719 -3.43334 -0.514826 1.637 -3.12952 -1.26902 1.63954 -3.404 -1.26325 
1.70707 -3.19035 -1.59342 0.352617 -0.28044 0.354629 -0.276348 0.971426 0.730341 
-0.443336 1.12374 0.926264 -0.394297 0.82966 1.02274 -0.486369 0.349765 1.3547 
-0.644081 0.710625 1.37248 -0.557057 0.317604 1.35279 -0.549392 0.68659 1.3175 
-0.474034 0.612961 1.24291 -0.351134 0.518912 1.09816 -0.512168 0.116895 1.37925 
-0.566856 0.397566 1.40957 -0.406861 2.29453 -1.21166 -0.126178 1.78768 -0.89117 
0.390222 0.842595 -0.666156 0.135731 1.32337 -0.715692 0.220601 0.924333 -0.331155 
-0.490626 2.9096 -1.94669 -0.526812 2.71371 -1.64552 -0.726878 2.85543 -1.5892 
-0.792281 2.46735 -0.954882 -0.942384 2.90874 -1.43595 -1.16873 2.91137 -1.25052 
0.649873 -0.718482 0.089776 0.763789 -0.978054 0.0726413 0.759786 -0.699898 -0.197227 
-0.779034 2.09198 -0.293557 -1.10894 2.46391 -0.65307 -0.916975 2.13223 -0.222813 
0.0186402 0.380882 0.557616 -0.146067 1.28535 0.0848454 -0.319601 1.45396 0.236504 
-0.184202 1.10279 0.42608 0.620678 -1.04796 0.519253 0.551761 -0.777088 0.370349 
-0.605347 1.04114 1.23821 -0.606136 0.770276 1.35392 0.14601 2.30475 -2.18605 
2.25729 0.0251532 0.531037 1.74896 0.273564 0.706746 1.99767 0.121475 0.563479 
1.08412 0.426266 -2.42658 1.29859 -0.219835 -2.27248 1.2535 -0.123623 -2.38212 
1.16351 0.540282 0.790112 1.11165 0.546726 0.6976 1.61847 0.293464 0.62059 
2.12083 0.00526436 0.444258 2.41835 -0.00590411 0.522006 2.66846 -0.170965 0.379531 
1.17626 0.00719012 -2.4559 1.11463 0.0339501 -2.48909 0.972707 0.574418 -2.53981 
1.26536 0.501363 0.852678 0.808968 0.712642 0.942733 2.39909 0.0453999 0.566437 
2.04122 0.179461 0.685986 0.518337 0.858493 0.775982 0.94098 0.61384 0.635271 
-0.127976 1.16055 1.04694 0.218011 1.0138 0.904977 0.340541 0.936072 1.00248 
1.56585 0.372863 0.818109 2.08719 0.190267 0.708795 -0.0531327 1.16028 0.852573 
-0.590844 1.414 0.956389 -0.567358 1.42546 0.856568 -0.659712 1.48381 0.75716 
-1.13837 1.69195 0.834724 -2.06016 1.98639 0.678793 -1.96804 2.02094 0.587741 
-1.62401 1.87656 0.76833 -1.35407 1.73653 0.916042 -0.440094 1.25278 1.177 
-0.607692 1.38253 1.06652 0.885745 -3.06724 -0.450879 1.03205 -3.25054 -0.602249 
0.916602 -3.05929 -0.444021 0.969241 0.597055 1.07941 1.5423 0.389221 0.875563 
1.53803 0.385552 0.910976 -1.04203 1.57942 1.02587 -1.47608 1.72198 0.99497 
-2.86748 2.11867 0.292834 -2.43706 2.0213 0.580277 -2.73115 2.00417 0.486355 
-2.44867 1.85388 0.737853 -2.84479 1.92904 0.487863 -2.64378 1.77267 0.683459 
-3.06474 1.8919 0.375115 0.782288 -2.99764 -0.581423 0.730243 -2.8724 -0.620691 
0.916523 -3.02348 -0.883613 -3.3764 1.9836 0.0979065 -3.18428 1.83325 0.307276 
-1.96694 1.88144 0.834049 -1.90901 1.68526 1.04136 -1.69003 1.7147 1.03676 
-1.28798 1.48546 1.24558 1.17205 -3.45325 -0.818535 1.15311 -3.39524 -0.696968 
-0.616588 1.25032 1.28989 1.3856 -2.2385 -2.15144 1.48375 -2.89466 -1.98091 
1.32452 -2.38948 -2.03655 -2.1269 2.75623 -0.755091 -1.62325 2.0245 0.0886492 
-1.24154 1.79936 0.489415 -2.57262 3.17176 -1.13691 -2.3301 2.68652 -0.686259 
-2.51918 2.54218 -0.559699 -2.05582 2.2649 -0.243166 -1.76047 3.0004 -1.06944 
-1.43631 2.61416 -0.700764 -1.46597 2.82198 -0.95916 -2.2958 2.0443 -0.042974 
-1.88503 1.71978 0.390111 -1.78679 1.77907 0.343762 -1.35939 2.88936 -1.09889 
-1.57554 3.38387 -1.57583 -1.09927 3.41489 -1.92257 -0.330113 -0.0285532 0.979776 
-0.396029 0.13465 1.19081 -0.454014 0.978745 1.21768 -0.235761 0.720046 0.42866 
-0.364452 1.68818 0.622903 -0.289449 1.44963 0.410568 0.205493 -1.53644 -0.14944 
0.0525061 -0.799376 0.00721036 0.162375 -1.06273 -0.208064 -0.573378 3.26717 -2.27308 
-2.06667 3.28933 -1.30363 -0.630383 1.29964 1.11018 -0.639031 1.48986 0.919693 
-0.698218 1.43511 1.0877 -0.0261077 -0.141873 0.0265017 -0.0877034 -0.184847 0.222201 
-3.22723 1.84742 0.0576824 -3.25344 1.79483 0.165816 -2.83431 1.65307 0.416345 
-2.21103 1.48323 0.974836 -2.16325 1.56151 1.00955 -1.58536 1.32153 1.30489 
0.52827 -2.67462 -0.342946 0.363597 -2.56585 -0.0322737 0.315621 -2.34006 -0.0627314 
-3.24205 1.79834 0.24339 -3.53108 1.88883 -0.0479188 -3.5088 2.0814 -0.294489 
-3.16772 1.94043 -0.0544088 -2.79192 1.65648 0.584745 -2.74211 2.2466 -0.306546 
-2.69665 2.42992 -0.471885 -3.00847 2.90379 -0.916193 -2.51307 1.90097 0.0787407 
-2.95718 2.17502 -0.266382 -3.37001 2.53374 -0.652644 -3.07527 2.03965 -0.148277 
-0.282282 0.0365451 0.791718 -0.18798 -0.852461 0.728883 -2.66076 1.70836 0.300957 
-0.0298772 -1.44081 0.450897 -0.0774945 -0.90312 0.416001 0.108598 -1.7582 0.194585 
-1.18147 1.20097 1.12944 -1.3159 1.3179 0.992749 -1.63344 1.35671 0.892808 
0.760099 -2.47363 -1.07412 0.82602 -2.61936 -1.08635 0.743142 -2.61606 -0.905256 
-0.237989 0.0696759 0.62948 -0.165077 -0.0944725 0.436542 -1.80621 1.30601 0.995623 
-2.18408 1.46646 0.702757 -2.33694 1.48487 0.696455 -1.10713 2.22551 -0.258036 
-0.828214 1.91172 0.185772 0.915427 -2.69048 -1.21006 0.857286 -2.48126 -1.27574 
-0.0114033 2.82065 -2.54173 0.365904 2.03764 -2.30405 -1.31605 2.18404 -0.116656 
-1.3487 2.36311 -0.379252 0.868298 -1.4691 0.464419 0.79751 -1.23529 0.312467 
0.756829 -1.28362 0.507926 0.694975 -1.27602 0.65863 1.20982 -1.33956 -0.862534 
1.07906 -0.787517 -0.918999 1.06399 -1.11322 -0.643968 0.972226 -1.71238 0.523924 
0.983596 -1.62647 0.280361 1.06892 -1.93841 0.532205 0.980465 -1.80747 0.730943 
1.23892 -0.352338 -1.72181 1.19317 0.00738116 -2.01571 1.02107 0.408193 -1.91896 
1.21339 -2.33895 0.464758 1.14464 -2.13345 0.513613 1.16548 -2.25891 0.726041 
1.42118 -2.81848 -0.37432 1.35686 -2.60747 -0.18129 1.3524 -2.7609 0.00183777 
1.26952 -2.63941 0.533608 1.30855 -2.72148 0.278969 1.27017 -2.54758 0.384637 
1.27744 -2.44629 0.141289 1.13385 -2.00152 0.254069 1.45253 -3.23683 -0.466007 
1.4587 -3.06423 -0.472845 1.39459 -3.04727 -0.169249 1.32284 -2.11559 -0.560693 
1.20782 -2.03007 -0.123948 1.30448 -2.33488 -0.208349 0.921618 0.903556 -2.46481 
0.78126 1.27146 -2.45359 1.05374 0.520502 -2.27409 0.834409 0.743838 -1.76382 
0.717712 1.22595 -2.10134 -0.362158 0.985386 0.818533 0.597934 1.65736 -2.39547 
0.472396 2.04147 -2.63399 0.896269 0.912923 -2.54679 1.49228 -1.13447 -2.33694 
1.39456 -0.660878 -2.35363 1.58528 -1.39621 -2.22062 1.34193 -2.86865 0.115409 
1.54288 -1.51273 -2.32618 1.31442 -0.659911 -2.42141 1.68612 -2.02924 -2.02111 
1.60194 -1.49012 -2.05193 1.47848 -3.39328 -0.63861 1.55904 -3.52768 -0.980591 
0.793949 1.09712 -2.61391 1.34573 -3.00233 0.0472973 1.52878 -2.9723 -0.837468 
1.10266 -1.80098 0.0289831 1.10451 -0.159758 -2.47691 1.34858 -3.12566 -0.0789741 
1.30909 -2.96403 0.189353 1.00438 -1.50476 -0.0195127 1.33032 -3.29459 -0.305782 
1.34544 -3.21861 -0.195513 1.29004 -3.16837 -0.119999 1.65853 0.333796 0.868403 
1.32442 -3.47469 -0.601551 1.2963 -3.33464 -0.393992 1.25744 -3.34149 -0.455384 
1.21739 -3.228 -0.331718 1.40308 -3.26214 -0.332445 1.14856 -3.26039 -0.495041 
1.22419 -3.40724 -0.612642 1.23393 -3.35935 -0.520042 1.07104 -3.17414 -0.477624 
1.00379 -3.10236 -0.455024 1.09907 -3.26963 -0.565807 1.08987 -3.14306 -0.420328 
1.32613 -1.27235 -2.35684 1.56583 -1.87576 -2.30163 1.53515 -2.11356 -2.26397 
0.900711 -2.9262 -0.353108 0.91394 -3.00048 -0.400993 1.73048 -3.20925 -1.79872 
1.74218 -2.86511 -1.9108 1.71118 -3.23186 -1.89797 1.66249 -3.26641 -1.91286 
1.64277 -2.76657 -2.12275 1.20921 -3.44065 -0.693099 0.795729 -2.86675 -0.304519 
0.668511 -2.68361 -0.170099 0.688133 -2.76202 -0.205583 0.800659 -2.99535 -0.381517 
0.748617 -2.88393 -0.290851 0.612825 -2.71451 -0.135088 0.546249 -2.70031 -0.0709398 
0.470844 -2.58102 0.0265497 0.80345 -3.04178 -0.435356 0.647299 -2.84874 -0.210784 
0.227282 -2.40951 0.325299 0.337755 -2.54235 0.180662 0.339971 -2.48562 0.183263 
0.404989 -2.48447 0.10523 -0.0583652 -2.08756 0.728278 0.0791108 -2.30957 0.523773 
0.0933254 -2.29388 0.505976 0.0996827 -2.25703 0.495756 -0.200265 -1.75093 0.95769 
-0.186272 -1.76926 0.932754 0.371187 -2.66437 0.0935169 0.369162 -2.62502 0.125539 
0.205878 -2.47994 0.338374 1.68332 -2.48008 -1.70756 1.57666 -2.37663 -1.33912 
1.60977 -2.7742 -1.27225 0.473272 -2.68688 0.00454362 0.995296 -2.9246 -1.16193 
1.08327 -3.15987 -1.12057 0.586385 -2.86129 -0.238422 0.369064 -2.65214 0.0413357 
1.7013 -2.31926 -2.16261 0.377004 0.777172 1.26623 -0.0703098 -1.99758 0.72369 
0.028849 -2.2407 0.588191 -0.128196 -1.90273 0.830369 0.923044 0.151744 -2.48948 
1.11178 -0.500399 -2.42463 1.10511 -0.857317 -2.34293 -0.0411264 -1.71437 0.566962 
1.08088 -1.13445 -2.25529 0.940251 -0.646732 -2.29891 1.08284 -1.413 -2.17127 
1.23351 -1.63115 -2.22182 0.248068 -1.96259 -0.081443 0.368393 -2.03771 -0.357315 
1.01946 -1.51325 -2.07729 1.16302 -1.89973 -2.06715 1.1621 -3.43357 -0.924741 
1.31897 -3.60714 -1.09154 0.960039 -1.82809 -1.87687 0.990248 -1.69274 -1.97372 
1.09613 -2.11227 -1.90157 0.998169 -2.68931 -1.37653 0.989701 -3.24134 -0.731579 
1.14002 -3.34155 -1.03742 0.882423 -1.21334 -2.06305 1.45558 -2.1617 -2.22101 
1.00444 -2.2984 -1.67359 0.901389 -2.10112 -1.64086 0.929907 -1.96503 -1.76535 
0.854097 -1.67389 -1.82267 0.856801 -2.30405 -1.4216 0.87283 -2.20057 -1.52712 
0.937883 -2.41689 -1.47977 0.663063 -2.69546 -0.645625 0.819997 -2.00104 -1.58041 
0.805085 -2.30885 -1.31967 0.620096 -2.49869 -0.713248 0.499649 -2.26684 -0.570887 
0.596027 -2.30873 -0.797749 0.710473 -2.31344 -1.10058 0.760203 -2.32821 -1.20732 
0.153981 -2.31948 0.320921 0.666128 -2.16736 -1.10797 0.645583 -2.25114 -0.977609 
0.558758 -2.10292 -0.833285 0.460285 -1.86604 -0.686598 0.50935 -1.84832 -0.833146 
1.26284 -3.01658 -1.61142 1.12998 -2.63279 -1.65551 1.20559 -2.57188 -1.80605 
0.751782 -2.16011 -1.3398 -0.0548192 -1.91283 0.662233 1.62874 -3.61424 -1.62589 
1.59263 -3.33564 -1.84515 -0.381717 -0.628148 1.29302 -0.307019 -1.0431 1.12519 
-0.265404 -1.40781 1.06646 -0.20854 -1.44435 0.929452 -0.456656 0.428776 1.384 
-0.344927 -0.550107 1.15539 -0.477287 0.411135 1.49137 -0.550377 1.46181 1.62563 
-0.452892 -0.0473629 1.47238 -0.520466 1.9543 1.25961 -0.565991 2.16233 1.47378 
-0.611296 2.5061 1.69986 -0.650549 3.37079 1.68769 -0.659205 3.86422 1.57995 
-0.64102 4.00616 1.39964 -0.596127 3.06444 1.35884 -0.518198 2.27961 1.14234 
-0.699737 4.40248 1.8088 -0.638079 4.56128 1.29475 -0.596992 3.85133 1.16395 
-0.634736 2.6762 1.88118 1.28723 -0.211968 -2.13245 -0.463136 1.96924 0.964786 
-0.425177 1.91273 0.811365 0.212171 -1.02201 -0.354926 0.0681521 -0.401331 -0.162139 
1.23047 -2.37268 -1.93671 0.239927 -0.890647 -0.468207 0.351285 -1.54204 -0.534721 
-0.0670894 0.397644 -0.00821112 0.424978 -1.95658 -0.547192 -0.537353 3.41159 0.943991 
-0.476133 3.11411 0.728109 -0.461846 2.62023 0.778313 -0.544062 3.00349 1.07462 
-0.219282 1.31958 0.212084 -0.363921 2.30986 0.465683 -0.452862 3.30827 0.604963 
1.03746 -2.58278 -1.53221 -0.132341 1.08211 0.00793654 1.38906 0.386609 0.930602 