# vtk DataFile Version 3.0
vtk output
ASCII
DATASET POLYDATA
POINTS 853 float
14.469 -0.581418 30.423 14.4003 -1.55557 30.2354 14.375 -2.54934 30.046 
14.3763 -3.57394 29.7834 14.3765 -4.67945 29.424 14.3951 -5.79406 28.9179 
14.3924 -6.84522 28.1948 14.369 -7.87643 27.2115 14.3741 -8.83544 26.1038 
14.3987 -9.69489 25.0688 14.44 -10.5574 24.0866 14.4915 -11.4103 23.1774 
14.5393 -12.2614 22.2645 14.5333 -13.1049 21.2738 14.4691 -13.8788 20.2618 
14.4211 -14.5788 19.139 14.2787 -15.1216 17.9661 14.0477 -15.5121 16.7766 
13.7653 -15.766 15.5448 13.3453 -15.9626 14.3331 12.806 -16.0973 13.2235 
12.2579 -16.001 12.2325 11.8242 -15.5096 11.5026 11.5445 -14.5385 11.1235 
11.3342 -13.1165 11.0494 11.1497 -11.6135 11.2713 11.1187 -10.3581 11.7565 
11.3468 -9.40495 12.4763 11.7078 -8.68649 13.3897 11.8462 -8.06466 14.3973 
11.6683 -7.50205 15.3974 11.4742 -7.1166 16.3384 11.4385 -6.8893 17.2047 
11.478 -6.66369 18.0422 11.4924 -6.32403 18.8757 11.4544 -5.80022 19.6753 
11.4138 -5.14459 20.4579 11.4132 -4.35377 21.2904 11.4844 -3.53431 22.1917 
11.5873 -2.71417 23.1562 11.7449 -1.825 24.0898 12.0058 -0.942107 24.8759 
12.3285 -0.0748278 25.4888 12.6295 0.748516 25.9764 12.889 1.54461 26.4574 
13.118 2.44061 26.9036 13.3017 3.41892 27.3223 13.4787 4.42691 27.7712 
13.7251 5.50711 28.2507 14.0951 6.70851 28.7641 14.5584 7.84671 29.303 
15.0602 8.57094 29.8645 15.4988 8.66627 30.3662 15.7308 8.08971 30.7302 
15.7366 6.85547 30.9469 15.5598 5.17672 31.0161 15.293 3.61482 30.97 
15.018 2.36741 30.8361 14.7614 1.31322 30.721 14.5733 0.36158 30.6088 
14.4359 -0.166726 30.0241 14.3735 -0.792832 30.0039 14.3139 -1.58486 29.6383 
14.3171 -2.15415 29.6443 14.2818 -3.02046 29.3256 14.2816 -3.72291 29.2091 
14.2205 -4.48681 28.7311 14.2603 -5.14212 28.5815 14.2245 -5.99172 27.9569 
14.251 -6.72393 27.4849 14.1651 -7.33649 26.6946 14.1731 -7.94201 26.0636 
14.1749 -8.68727 25.1583 14.2364 -9.30616 24.552 14.1859 -9.81349 23.7793 
14.259 -10.4171 23.303 14.242 -11.0597 22.4985 14.2041 -11.6209 21.8134 
14.1654 -12.1691 21.0199 14.1367 -12.7032 20.5244 14.0357 -13.2942 19.6426 
13.8736 -13.6784 18.9552 13.6959 -14.0312 18.0456 13.5389 -14.3742 17.3837 
13.288 -14.673 16.4131 13.0484 -14.7372 15.7391 12.8523 -14.9935 14.8654 
12.574 -15.0528 14.0716 12.2631 -15.2199 13.2026 12.0047 -14.9553 12.7142 
11.7699 -14.8944 12.1389 11.5779 -14.421 11.8172 11.418 -13.6184 11.6766 
11.2833 -12.7827 11.6909 11.1426 -11.9972 11.717 11.0608 -11.2237 11.9567 
11.0315 -10.534 12.5265 11.0642 -10.0444 12.9912 11.1403 -9.61168 13.6822 
11.2923 -9.20308 14.3547 11.3969 -8.8125 15.1773 11.4917 -8.60817 15.8308 
11.5523 -8.34686 16.5938 11.6442 -8.1246 17.1206 11.7371 -7.77948 17.9334 
11.8322 -7.69845 18.4649 11.8789 -7.22652 19.3527 11.8396 -6.90166 19.8515 
11.8264 -6.29262 20.6097 11.7881 -5.92912 21.1134 11.8122 -5.13499 21.9539 
11.8112 -4.59936 22.449 11.8969 -3.86096 23.2466 11.9251 -3.35243 23.8036 
12.0243 -2.45484 24.6309 12.1748 -1.8999 25.0905 12.3754 -1.07715 25.6814 
12.5516 -0.476265 26.0409 12.6546 0.206611 26.3224 12.8943 0.77973 26.6425 
13.0879 1.56818 26.9748 13.2996 2.05546 27.3173 13.4128 2.84627 27.5689 
13.6258 3.53999 27.8749 13.803 4.54391 28.2001 14.043 5.30549 28.5375 
14.2682 6.24976 28.8805 14.4968 6.91547 29.1763 14.8058 7.70148 29.5409 
15.027 7.84153 29.8287 15.2567 8.01534 30.0986 15.4119 7.75749 30.3467 
15.4333 6.91299 30.5305 15.4229 6.00396 30.707 15.2543 4.79653 30.6036 
15.1846 3.9534 30.665 14.9569 2.81619 30.5025 14.8077 2.06264 30.5226 
14.6302 1.24188 30.2398 14.554 0.678864 30.27 15.0877 6.90828 30.0009 
14.8333 6.99907 29.6273 15.0679 5.60557 30.2247 14.4836 5.73657 29.2049 
14.7867 5.99736 29.6948 14.8429 3.73715 30.1194 14.1175 4.0677 28.7172 
14.5813 4.54221 29.5077 14.5643 2.08918 29.8905 13.7657 2.49282 28.2103 
14.1543 -0.717711 29.2111 14.322 0.660591 29.577 13.1142 -0.164352 27.1349 
13.4316 1.12091 27.6842 11.3747 -12.9525 12.3311 12.5874 -4.39888 24.539 
12.6557 -2.97349 25.6144 14.3138 2.8818 29.186 12.9591 -1.31451 26.6344 
11.6107 -13.8946 12.5039 11.1748 -11.8963 12.4157 13.8911 -4.81022 27.4634 
14.007 -3.48346 28.2831 14.0295 -2.13067 28.7057 13.7512 -9.45662 22.872 
13.547 -11.4082 20.3627 11.6126 -5.25207 21.2463 12.4976 -5.73546 23.2247 
11.7107 -7.10656 18.7171 11.7965 -2.65572 23.9673 11.8893 -13.9181 13.5788 
11.1809 -11.1601 13.4408 13.8628 -6.14301 26.5252 13.7771 -8.42586 24.024 
12.4464 -8.15953 20.3411 12.2588 -8.93082 18.7202 13.8575 -7.10343 25.6783 
12.2828 -3.30393 24.665 12.3787 -6.95352 21.7619 13.6936 -10.3465 21.7504 
12.9263 -12.8796 17.6561 14.0384 1.4392 28.815 12.1453 -6.04558 22.0488 
12.2101 -8.24375 19.3406 11.5248 -12.8264 13.1329 12.1748 -13.6575 14.7784 
11.2954 -10.6866 14.6239 13.3121 -12.1975 19.0878 11.9964 -9.55336 17.2268 
12.517 -13.4109 16.26 11.6463 -10.1503 15.9527 13.0856 -4.1109 25.8443 
13.7941 0.193723 28.4593 11.6156 -12.3886 14.2732 12.3519 -4.88799 23.6208 
13.1097 -5.62149 24.9151 12.0336 -9.03277 17.9428 12.3647 -7.4448 21.0111 
13.0152 -7.10803 23.3024 12.9193 -9.53398 20.3053 13.4197 -3.49301 26.8669 
12.6594 -10.4953 18.7215 13.0674 -8.78945 21.6394 13.6243 -2.74522 27.6172 
13.4784 -1.93129 27.5966 13.3101 -12.9449 18.4176 12.7526 -11.611 18.2106 
13.6258 -12.1572 19.8612 13.0753 -11.0562 19.5908 12.516 -13.9976 15.4792 
12.0847 -12.7509 15.6054 12.037 -11.7444 16.4102 12.8966 -13.6101 16.9591 
12.4475 -12.4824 16.9932 12.25 -11.043 17.2079 11.3486 -9.91789 15.1481 
11.62 -11.16 15.5243 11.7412 -9.51891 16.5061 13.1222 -8.11253 22.5648 
13.6792 -7.45854 24.6918 13.3396 -6.46959 24.6506 12.387 -10.4231 17.8911 
13.3998 -5.13371 26.0089 13.4915 -10.6496 20.8782 13.1546 -9.51862 21.0842 
12.9919 -2.36389 26.4501 13.6074 -1.02771 28.013 11.7089 -12.0716 15.0857 
12.8011 -9.94046 19.6624 14.0864 -14.405 18.5483 13.8144 -13.9457 18.4587 
13.9467 -14.4999 18.0583 11.6827 -5.57633 21.1518 11.9486 -6.02022 21.5247 
11.8266 -5.60162 21.5788 13.6401 -14.211 17.749 13.9109 -14.7894 17.629 
13.7922 -14.9606 17.1263 14.1565 -15.3306 17.3771 14.1608 -14.1601 19.0484 
14.3729 -14.8767 18.5533 11.6964 -5.16702 21.5776 11.6087 -4.77693 21.6439 
11.5093 -4.8745 21.2142 14.1004 -13.0245 20.0966 14.2722 -13.6272 19.9364 
14.3084 -13.2776 20.4473 14.4911 -13.4968 20.7817 14.3523 -12.9582 20.8673 
13.3547 -13.5651 17.8625 13.2405 -13.7003 17.5421 14.2274 -13.924 19.4672 
13.9478 -13.4719 19.3055 13.7039 -12.8156 19.3881 13.6132 -12.9814 19.0803 
14.4495 -14.2428 19.7118 11.7983 -7.74302 18.2406 11.9849 -8.34769 18.3111 
12.0309 -8.24454 18.5981 13.5001 -13.4933 18.2497 13.1404 -12.9152 18.0631 
12.9363 -15.5543 14.1661 12.7272 -15.6072 13.691 13.0881 -16.0454 13.7638 
11.7648 -7.38019 18.5764 11.5983 -6.907 18.4288 11.6569 -7.23855 18.2519 
11.5884 -13.386 12.8594 11.4429 -12.9059 12.6815 11.4812 -13.3533 12.4247 
12.5004 -15.6468 13.2029 12.3956 -15.1132 13.6041 12.7185 -15.0167 14.4779 
13.1109 -15.4979 14.6202 12.2902 -15.623 12.7782 12.5204 -16.0911 12.7159 
13.5452 -15.2411 16.0436 13.9232 -15.6574 16.1671 13.6665 -15.1228 16.5606 
13.4271 -14.563 16.8962 12.9055 -13.2951 17.294 13.1786 -13.9576 17.1552 
13.2787 -15.4091 15.13 13.3443 -15.2018 15.6354 13.0042 -14.9245 15.3332 
13.171 -14.7292 16.0349 11.3208 -10.2364 14.9158 11.2747 -9.57889 14.7913 
11.2276 -9.85013 14.4829 12.7598 -14.3716 15.6048 12.6575 -14.4682 15.1783 
13.5674 -15.8657 14.9266 12.0852 -5.40772 22.4628 12.1048 -5.14109 22.7801 
11.8129 -4.91251 22.1699 12.3035 -13.4465 15.5442 12.5085 -13.7325 15.83 
12.271 -13.0359 15.9442 13.5842 -11.791 20.1304 13.8735 -12.4195 20.1733 
13.8809 -12.1 20.4883 13.394 -7.2838 24.0635 13.4772 -6.94685 24.5747 
13.1521 -6.72461 23.9482 14.5169 -11.8342 22.7294 14.3947 -11.2851 22.8216 
14.4043 -11.6559 22.419 14.2108 -9.54376 24.1695 14.0751 -8.92146 24.4 
14.0091 -9.17759 23.8955 14.3771 -10.8798 23.2562 14.2364 -10.6624 22.9357 
14.3916 -12.336 21.6333 14.5522 -12.6883 21.7787 14.3985 -11.9796 22.0542 
14.3594 -10.5244 23.6398 14.4653 -10.9897 23.6201 12.3891 -7.20977 21.4211 
12.0826 -6.64636 21.1408 12.0716 -6.85344 20.7721 14.3251 -9.50231 24.7936 
14.3366 -9.86102 24.3712 14.4186 -10.1168 24.5798 14.2155 -1.77624 29.2662 
14.2455 -1.25083 29.4315 14.078 -1.4119 28.9273 14.3198 -10.1415 23.9331 
14.3102 -9.17557 25.1872 14.1993 -8.99886 24.8261 14.3831 -9.27136 25.5751 
14.2999 -8.80039 25.6407 13.9989 -9.58855 23.4347 14.0687 -10.0416 23.1233 
14.2158 -10.1219 23.5311 14.231 -2.18692 29.2856 14.1809 -2.6567 29.0239 
14.2951 -2.54 29.4746 13.7383 -3.57291 27.5564 13.8018 -3.05419 27.9008 
13.5343 -3.09927 27.2766 13.9881 -8.4858 24.6511 13.4012 -9.12703 22.2527 
13.3966 -9.5625 21.7686 13.7025 -9.91747 22.2462 14.2353 -11.3755 22.1416 
13.8869 -11.8164 20.7257 14.1787 -12.4562 20.8105 13.9596 -10.9967 21.779 
13.9966 -10.7225 22.1669 14.0005 -10.2918 22.6489 14.3523 -12.5793 21.1805 
14.1869 -11.9391 21.3898 11.808 -6.09251 20.9041 12.0413 -6.39624 21.3885 
12.5446 -6.56061 22.6248 12.2895 -6.54383 21.9671 12.6909 -7.10443 22.4805 
11.5024 -5.17598 20.9049 11.6013 -5.59092 20.792 11.6064 -5.74876 20.4834 
11.824 -6.58371 20.2225 11.6231 -6.03273 20.1279 11.6305 -6.35671 19.7316 
13.9547 -7.73603 25.3882 14.0016 -7.51167 25.8409 13.7562 -7.22979 25.1899 
12.1111 -7.46711 20.0729 11.8683 -7.10142 19.5677 12.1055 -7.62323 19.7532 
13.7441 -8.90558 23.4246 12.7416 -7.81134 21.7729 12.7172 -8.09353 21.3465 
13.0907 -8.44705 22.0896 14.2969 -8.37872 26.1514 14.1622 -8.29461 25.5913 
13.625 -10.5476 21.3479 13.8887 -11.1821 21.4027 11.5878 -4.44203 21.8823 
11.8055 -15.2085 11.8516 11.653 -14.6335 11.9907 11.6757 -14.9095 11.6419 
11.8375 -2.98367 23.8516 12.0901 -3.36713 24.1955 11.9816 -2.93515 24.2531 
11.499 -14.0551 11.757 11.4638 -14.019 11.3783 11.5658 -14.512 11.485 
11.6703 -15.0856 11.271 11.9801 -15.42 12.1405 12.0229 -15.8114 11.8197 
11.895 -2.52846 24.2878 11.8715 -2.15372 24.3792 11.7454 -2.31149 23.9709 
11.565 -14.1491 12.1059 11.4876 -13.7157 12.0813 12.1107 -15.4281 12.5071 
[...]
POINT_DATA 853
VECTORS velocity double
0.994158 -3.10303 -0.435194 1.15578 -3.25209 -0.439416 1.25599 -3.25299 -0.289915 
1.30747 -3.11257 -0.0242959 1.30684 -2.83496 0.325373 1.24016 -2.46956 0.628521 
1.09893 -2.04593 0.747141 0.858365 -1.53931 0.709237 0.543595 -1.02696 0.684576 
0.225649 -0.613016 0.800107 -0.073384 -0.311681 1.0392 -0.303179 -0.152343 1.29334 
-0.433488 -0.122738 1.43926 -0.43599 -0.205988 1.36325 -0.300621 -0.359554 1.04914 
-0.0297226 -0.472548 0.601235 0.361274 -0.421695 0.268596 0.875574 -0.219342 0.164294 
1.49042 0.024913 0.244712 2.12017 0.134958 0.367361 2.59604 0.0419608 0.421494 
2.74465 -0.119158 0.411951 2.45562 -0.0988342 0.427697 1.6291 0.297418 0.556601 
0.184717 1.10253 0.747328 -1.32518 1.85988 0.737646 -2.45574 2.16605 0.489 
-3.20003 2.12187 0.232382 -3.54501 1.9744 0.0661595 -3.6017 2.01545 -0.123633 
-3.52515 2.38746 -0.43753 -3.26493 2.85821 -0.769565 -2.8507 3.18512 -1.00572 
-2.37117 3.38066 -1.1969 -1.8751 3.49563 -1.42998 -1.38616 3.55805 -1.7674 
-0.864584 3.48002 -2.14298 -0.293228 3.16658 -2.49591 0.255789 2.51162 -2.69723 
0.680033 1.58 -2.73171 0.893571 0.586574 -2.64545 0.939882 -0.321584 -2.46625 
0.905469 -1.04527 -2.232 0.855347 -1.56021 -1.97771 0.826143 -1.96575 -1.72111 
0.774644 -2.20976 -1.46335 0.6942 -2.27033 -1.21867 0.568015 -2.07846 -0.957842 
0.345101 -1.39019 -0.623326 0.00291674 0.159071 -0.167761 -0.356574 2.37774 0.39968 
-0.605418 4.13895 1.06117 -0.729866 4.6766 1.67745 -0.7383 3.81786 1.99609 
-0.612227 1.54362 1.83601 -0.37094 -0.933031 1.30736 -0.0703256 -2.06205 0.761126 
0.247396 -2.44445 0.298031 0.539953 -2.67042 -0.0580331 0.784431 -2.87986 -0.29644 
1.01999 -3.26142 -0.560679 1.12753 -3.35176 -0.594497 1.29135 -3.52798 -0.687414 
1.3255 -3.47512 -0.578117 1.39862 -3.38746 -0.475294 1.39416 -3.1854 -0.2509 
1.39631 -2.9175 -0.151713 1.33048 -2.64377 0.106219 1.22429 -2.20815 0.207216 
1.07917 -1.8396 0.337975 0.901972 -1.3919 0.288582 0.697719 -1.02027 0.358209 
0.398482 -0.543745 0.494374 0.169366 -0.278045 0.67941 -0.0701853 0.0491223 0.870544 
-0.237003 0.139356 1.07855 -0.435755 0.318011 1.29622 -0.54649 0.386397 1.41121 
-0.593248 0.406758 1.40103 -0.544759 0.266617 1.31077 -0.410138 0.136218 1.04715 
-0.247415 0.0598311 0.820281 0.0142645 0.0382431 0.599385 0.301492 0.0168537 0.477999 
0.735217 0.105241 0.471287 1.01138 0.206621 0.567607 1.47936 0.259356 0.63485 
1.79215 0.284566 0.717293 2.13986 0.208875 0.697542 2.01567 0.24666 0.745154 
1.99774 0.216182 0.688944 1.5587 0.405386 0.74382 0.733248 0.82181 0.870275 
-0.153749 1.27236 0.965842 -0.952603 1.65199 0.951826 -1.68167 1.90621 0.879396 
-2.25117 1.94292 0.820147 -2.59984 1.89563 0.727484 -2.7973 1.77416 0.658247 
-2.90947 1.72434 0.525773 -2.85819 1.78092 0.345579 -2.68729 1.88754 0.22103 
-2.45419 2.09451 0.0334261 -2.28582 2.27207 -0.115871 -1.9804 2.52124 -0.337392 
-1.70016 2.53968 -0.358912 -1.3101 2.64865 -0.618169 -1.07144 2.66231 -0.812692 
-0.656814 2.58161 -1.16607 -0.3533 2.40786 -1.36655 0.183912 1.98713 -1.77984 
0.487747 1.66363 -2.03412 0.905983 0.949238 -2.28414 1.12038 0.411286 -2.39447 
1.28969 -0.414865 -2.47349 1.31268 -0.920663 -2.44936 1.26454 -1.52561 -2.32167 
1.1985 -1.86783 -2.18182 1.09064 -2.03395 -2.01218 1.03434 -2.2884 -1.82385 
0.937591 -2.42745 -1.58679 0.894269 -2.58544 -1.38569 0.783751 -2.55054 -1.18008 
0.663555 -2.48498 -0.936501 0.470616 -2.10469 -0.654901 0.262076 -1.5331 -0.345518 
0.00217575 -0.386674 -0.0147266 -0.209783 0.753573 0.295126 -0.447396 2.37574 0.709652 
-0.55062 2.85105 1.0345 -0.639686 3.37311 1.35312 -0.658719 3.0243 1.57932 
-0.571053 1.47869 1.55973 -0.454035 -0.0100963 1.41875 -0.231324 -1.49092 1.01089 
-0.0777582 -2.04997 0.770129 0.217205 -2.51463 0.334213 0.406845 -2.66335 0.0907124 
0.671426 -2.91902 -0.235963 0.796528 -3.00666 -0.353446 -0.467247 1.22273 1.11283 
-0.377543 1.17409 0.761747 -0.287136 -0.773573 1.00443 -0.0230559 -0.941024 0.243356 
-0.218973 -0.432398 0.684435 0.111434 -2.37683 0.445146 0.428828 -2.42324 -0.350228 
0.115425 -2.06005 0.27976 0.561856 -2.91706 -0.155336 0.815562 -2.90219 -0.921912 
1.29454 -3.65477 -0.945769 0.969502 -3.30843 -0.63775 1.34296 -2.989 -1.8327 
1.10536 -3.03782 -1.41552 0.038223 1.12367 1.13598 1.39589 -0.717029 -1.85783 
1.64375 -1.83171 -2.20305 0.55283 -2.87735 -0.296819 1.53299 -2.78646 -2.0955 
1.02514 0.667327 1.00774 -1.02347 1.56823 1.16003 1.46589 -2.55594 -0.71496 
1.5506 -3.31231 -0.886538 1.51476 -3.71029 -1.07061 -0.224896 0.628294 0.827459 
-0.728073 1.02979 1.33696 -0.279654 2.66729 -1.86349 0.741135 0.542063 -1.19955 
-1.74362 2.90322 -0.792043 1.06337 0.464533 -2.55885 0.965884 0.608488 1.12443 
-1.57357 1.5198 1.27221 1.17955 -1.64109 -0.404422 0.229976 0.0968076 0.348056 
-0.735544 1.93458 0.173711 -1.23004 1.95107 0.461254 0.85484 -0.953912 -0.135273 
1.44534 -0.724259 -2.2788 -0.0796471 1.54698 -0.500509 -0.55429 0.948667 1.18828 
-0.322702 0.647444 0.938993 0.952558 -3.25836 -0.832468 0.172282 1.55208 -1.10953 
-1.12136 2.14527 0.114293 -0.081083 1.05625 1.31626 0.561881 0.583121 1.13634 
-1.68501 1.33165 1.25602 -0.636265 0.877273 1.15852 -1.55078 1.63684 0.709723 
0.141531 0.529457 0.952384 -1.67057 1.35525 1.0145 1.63539 -1.96848 -1.75478 
1.26974 -3.55414 -1.23525 -0.439272 0.989458 1.45824 1.03973 0.232593 -1.68881 
1.2142 -0.877484 -1.13887 -1.48674 1.8934 0.458085 -0.447979 1.85823 -0.230322 
0.414973 0.497778 -0.337086 -0.770209 1.63914 0.887098 1.70082 -2.85238 -1.64102 
-0.947768 1.52764 1.05643 -0.405485 1.34207 0.595888 1.67734 -3.42167 -1.51827 
1.65265 -3.53362 -1.68922 -0.396219 0.558194 0.945676 -0.747327 1.15679 1.13221 
-0.655018 0.769583 1.27144 -0.805209 1.33412 1.22285 0.660727 0.43202 0.900986 
-0.173284 0.747066 1.25914 -0.729578 0.993939 1.25159 0.0970872 0.401327 0.773602 
-0.400855 0.809125 1.08288 -0.974149 1.23377 1.13331 -2.08376 1.44036 0.94753 
-1.15964 1.1235 1.33334 -1.83365 1.57498 0.710652 -0.0393056 0.949924 0.236894 
0.611084 -0.345902 -0.097245 0.90724 -0.504435 -0.658987 -1.08063 1.47416 1.0077 
1.44212 -1.7578 -1.1789 -0.703774 1.18342 1.26176 -0.615841 1.42939 0.916593 
1.68483 -2.70353 -2.09599 1.52058 -3.67692 -1.53938 -0.624511 0.952966 1.43307 
-0.877639 1.65095 0.981561 0.0274794 -0.252522 0.540707 -0.0931684 0.00509364 0.666182 
0.163369 -0.189061 0.454208 -0.334737 2.56913 -1.63577 -0.107015 2.01569 -1.21428 
-0.0592896 2.15348 -1.51992 0.144571 0.011777 0.528929 0.370132 -0.210332 0.344451 
0.588215 -0.14894 0.3003 0.602219 -0.333477 0.189228 -0.125435 -0.235366 0.70034 
0.15225 -0.472093 0.406804 -0.0561868 2.37311 -1.84356 -0.0195326 2.51405 -2.10731 
-0.317719 2.92784 -2.1533 -0.486594 0.191083 1.19034 -0.345075 -0.133795 1.03244 
-0.434578 -0.0558332 1.21189 -0.386134 -0.278484 1.23601 -0.484877 0.00846893 1.32873 
-0.110607 0.304252 0.739576 0.00522951 0.288574 0.698188 -0.237697 -0.19804 0.853398 
-0.341387 0.106783 0.93949 -0.512137 0.484602 1.10404 -0.450844 0.4474 1.01978 
-0.181258 -0.430326 0.826478 -1.81408 2.53068 -0.343674 -1.55929 2.19055 0.0804672 
-1.45408 2.22761 0.0380389 -0.202248 0.285051 0.781266 -0.363469 0.604805 0.931376 
2.04482 0.191276 0.527457 2.24382 0.166027 0.554316 2.38883 0.109879 0.404681 
-1.74257 2.73389 -0.58948 -2.0076 3.1175 -0.980127 -2.00283 2.88277 -0.727662 
0.48881 0.867807 1.18091 -0.00586313 1.09697 1.22233 0.460596 0.923478 1.10203 
2.40782 0.112026 0.559935 1.96943 0.261714 0.727823 1.63345 0.281108 0.684106 
1.83325 0.186053 0.486209 2.48274 0.059696 0.556417 2.71926 -0.0443433 0.421856 
1.10788 0.0252723 0.332269 1.17381 -0.0931862 0.187295 0.853613 -0.0613438 0.298501 
0.523764 0.0446645 0.447473 -0.104573 0.496741 0.841447 0.199846 0.234974 0.633968 
1.5734 0.151502 0.433207 1.26779 0.113924 0.415476 1.26245 0.221685 0.575533 
0.897789 0.158924 0.514328 -1.93308 1.38693 1.08974 -2.46054 1.56642 0.76937 
-2.36421 1.54541 0.892062 0.85655 0.320222 0.73464 1.04978 0.345263 0.780362 
1.81429 0.106414 0.31186 0.45453 1.34474 -1.49656 0.640932 1.09098 -1.62973 
0.31929 1.85044 -1.8883 0.286013 0.571054 1.07973 0.412488 0.469835 0.927247 
-0.0249379 0.655665 1.12614 -0.701779 0.904694 1.32394 -0.605382 0.539512 1.29224 
-0.643382 0.632127 1.35736 0.543851 0.0134627 -0.224536 0.743697 -0.359472 -0.386802 
0.688209 0.0168178 -0.551202 -0.382277 -0.122445 1.38738 -0.373821 0.0686483 1.30619 
-0.443849 0.0975107 1.38797 0.0520165 -0.108841 0.763958 0.203632 -0.147906 0.547192 
0.0497862 0.104677 0.65398 -0.274465 0.0084548 1.18863 -0.33284 0.249564 1.17472 
-0.511518 0.0916396 1.43776 -0.45192 -0.152733 1.4333 -0.4872 0.105022 1.4317 
-0.170383 -0.0703636 1.07142 -0.200589 -0.213265 1.17372 -0.255076 1.69726 -0.352156 
-0.345226 2.04915 -0.797632 -0.543679 2.19483 -0.693767 0.1921 -0.437153 0.740803 
0.0554098 -0.281779 0.848141 0.0738686 -0.449192 0.906864 1.38604 -3.64651 -0.838802 
1.30897 -3.6144 -0.822052 1.4285 -3.74693 -1.05856 -0.0722091 -0.115505 0.950099 
0.320364 -0.597757 0.660129 0.276808 -0.38842 0.58278 0.383113 -0.805998 0.72394 
0.46665 -0.798491 0.591458 -0.117565 0.290499 0.827614 -0.243352 0.34888 0.996755 
-0.160329 0.105901 0.980033 1.40229 -3.5901 -0.748068 1.46028 -3.55187 -0.760069 
1.3709 -3.46585 -0.557793 1.63693 -3.13193 -1.26575 1.6334 -3.41502 -1.26956 
1.69781 -3.18481 -1.58583 0.343259 -0.261192 0.382183 -0.313119 1.00954 0.736042 
-0.480618 1.15421 0.931196 -0.421037 0.844823 1.03418 -0.500936 0.352655 1.37056 
-0.66096 0.707546 1.3838 -0.57036 0.317742 1.36883 -0.568536 0.688539 1.33115 
-0.49317 0.617099 1.25723 -0.370294 0.526348 1.11283 -0.524459 0.120665 1.39714 
-0.580843 0.397893 1.4249 -0.480768 2.48328 -1.27491 -0.202466 1.97412 -0.952811 
0.336724 0.987767 -0.699716 0.0681136 1.49223 -0.766531 0.165356 1.0509 -0.355052 
-0.527048 3.04937 -2.0091 -0.581221 2.87977 -1.70682 -0.785644 3.02318 -1.64206 
-0.879842 2.65977 -1.00455 -1.00927 3.08287 -1.47976 -1.24354 3.09072 -1.28522 
0.648563 -0.697508 0.125357 0.767923 -0.961128 0.109449 0.756164 -0.666146 -0.160863 
-0.879338 2.27027 -0.336214 -1.20796 2.65412 -0.690489 -1.02097 2.30872 -0.261621 
-0.00401895 0.407436 0.574363 -0.210663 1.39952 0.0620171 -0.389349 1.56557 0.212957 
-0.233368 1.17372 0.421023 0.625598 -1.04116 0.547731 0.552353 -0.765619 0.401756 
-0.632694 1.04936 1.24722 -0.625644 0.77053 1.36632 0.127457 2.42259 -2.27077 
2.25663 0.0599868 0.558854 1.763 0.316068 0.729696 2.00294 0.161644 0.591488 
1.08163 0.492319 -2.50135 1.28702 -0.124471 -2.32693 1.24541 -0.052159 -2.44263 
1.19143 0.588631 0.809908 1.13925 0.594914 0.72053 1.63326 0.338548 0.646974 
2.12044 0.0444474 0.476037 2.41423 0.0239543 0.547993 2.65857 -0.146868 0.408601 
1.17237 0.0513512 -2.52237 1.1133 0.052667 -2.55815 0.979018 0.59035 -2.62071 
1.29143 0.549209 0.870196 0.843341 0.76427 0.956219 2.39585 0.0734617 0.588957 
2.04701 0.21639 0.707796 0.558284 0.90734 0.794938 0.970704 0.661919 0.659703 
-0.0849092 1.21493 1.05557 0.261935 1.06452 0.919 0.381054 0.989603 1.01292 
1.58467 0.417337 0.836705 2.09123 0.223097 0.726318 -0.00596248 1.20877 0.868624 
-0.544767 1.4646 0.97013 -0.518592 1.47267 0.874179 -0.610549 1.52843 0.778965 
-1.0948 1.73967 0.857665 -2.04226 2.0405 0.717156 -1.94036 2.06978 0.630177 
-1.59112 1.92675 0.799102 -1.3201 1.78952 0.937277 -0.40528 1.31276 1.18069 
-0.566865 1.43768 1.07563 0.874668 -3.14746 -0.467298 1.01871 -3.32016 -0.623128 
0.906882 -3.13421 -0.465115 0.994732 0.649376 1.08747 1.55996 0.433823 0.891315 
1.55413 0.428846 0.924064 -1.00621 1.63465 1.03934 -1.45344 1.78061 1.01292 
-2.87669 2.17435 0.347965 -2.43686 2.07947 0.623275 -2.74817 2.06536 0.529989 
-2.47199 1.92089 0.767235 -2.87642 1.9938 0.526178 -2.68861 1.84393 0.708097 
-3.11036 1.95814 0.411117 0.761099 -3.08278 -0.57708 0.705875 -2.94882 -0.61093 
0.894775 -3.1116 -0.883045 -3.42034 2.04232 0.14299 -3.24381 1.90286 0.337207 
-1.9569 1.94086 0.86314 -1.92425 1.75529 1.0556 -1.68468 1.77934 1.0529 
-1.28596 1.55513 1.24841 1.15456 -3.51441 -0.838116 1.13859 -3.45292 -0.722689 
-0.595249 1.31651 1.28882 1.35854 -2.26324 -2.16997 1.45344 -2.91804 -1.98785 
1.29873 -2.43222 -2.05494 -2.21029 2.922 -0.756296 -1.73619 2.18034 0.0669309 
-1.34707 1.92603 0.464598 -2.62508 3.31096 -1.1152 -2.4113 2.8447 -0.682147 
-2.6009 2.69168 -0.552322 -2.15868 2.42561 -0.253299 -1.83736 3.17215 -1.0798 
-1.53353 2.79999 -0.726589 -1.55252 3.00461 -0.982651 -2.39966 2.18755 -0.0495638 
-1.99941 1.84976 0.371943 -1.90144 1.91452 0.32418 -1.44013 3.07061 -1.12609 
-1.62727 3.53428 -1.58813 -1.13616 3.54696 -1.95491 -0.386794 0.212126 1.08366 
-0.451855 0.380215 1.30119 -0.51264 1.20667 1.33039 -0.294785 0.926877 0.529471 
-0.420441 1.86373 0.73308 -0.345437 1.62861 0.517325 0.153909 -1.40792 -0.0945467 
-0.00471524 -0.617041 0.0789807 0.107355 -0.907141 -0.146226 -0.58852 3.36696 -2.33031 
-2.1242 3.44103 -1.29767 -0.668819 1.32354 1.11283 -0.692166 1.53991 0.913708 
-0.743097 1.46698 1.08568 -0.0846425 0.0538868 0.108495 -0.146943 0.0226383 0.308339 
-3.30952 1.93724 0.0752442 -3.33124 1.87535 0.185998 -2.92445 1.74422 0.423251 
-2.28232 1.56433 0.976389 -2.2159 1.6388 1.01677 -1.6369 1.40018 1.29832 
0.498524 -2.71215 -0.321262 0.333077 -2.57471 -0.00318634 0.277853 -2.3045 -0.0255507 
-3.31185 1.87224 0.268022 -3.5966 1.95555 -0.016503 -3.57817 2.16538 -0.264769 
-3.25101 2.04038 -0.0380242 -2.86569 1.73595 0.598553 -2.82751 2.38047 -0.297857 
-2.7776 2.5699 -0.461192 -3.06061 3.02805 -0.885747 -2.61433 2.02865 0.0761025 
-3.03911 2.29637 -0.252554 -3.42753 2.63775 -0.618266 -3.15873 2.14961 -0.13324 
-0.340493 0.270667 0.892032 -0.240758 -0.63665 0.816242 -2.76134 1.81628 0.300618 
-0.0790788 -1.27142 0.520522 -0.132862 -0.701462 0.495267 0.061313 -1.62976 0.251772 
-1.2649 1.27472 1.10858 -1.41095 1.40337 0.970534 -1.73957 1.45367 0.871953 
0.736819 -2.5519 -1.06601 0.804038 -2.7068 -1.08224 0.717414 -2.68786 -0.894337 
-0.297006 0.297021 0.726961 -0.224342 0.124589 0.52839 -1.90572 1.39623 0.979641 
-2.29049 1.56709 0.69124 -2.43713 1.5804 0.690001 -1.2141 2.40467 -0.292832 
-0.926249 2.05751 0.153267 0.895146 -2.78506 -1.21177 0.838352 -2.5784 -1.2771 
-0.00579185 2.88093 -2.62447 0.356389 2.13903 -2.39363 -1.42647 2.35557 -0.145264 
-1.45529 2.54522 -0.408063 0.880186 -1.46455 0.489806 0.806456 -1.22697 0.344368 
0.765664 -1.27803 0.535435 0.702504 -1.27123 0.682718 1.21483 -1.2953 -0.828711 
1.07147 -0.71566 -0.89642 1.06632 -1.07129 -0.607714 0.986599 -1.71055 0.54129 
0.99812 -1.62198 0.305394 1.08492 -1.93962 0.540168 0.994141 -1.80675 0.740407 
1.22056 -0.224298 -1.7522 1.17577 0.134728 -2.06933 0.99872 0.548377 -1.98168 
1.22957 -2.34772 0.452762 1.16125 -2.13797 0.512173 1.1802 -2.26605 0.711756 
1.43406 -2.83159 -0.386057 1.37264 -2.6175 -0.188186 1.36568 -2.7775 -0.0209843 
1.28116 -2.65711 0.498724 1.32082 -2.73984 0.247777 1.28469 -2.56142 0.36174 
1.29428 -2.45572 0.132899 1.15136 -2.00243 0.265699 1.45585 -3.2612 -0.498198 
1.46674 -3.08304 -0.494435 1.40197 -3.0707 -0.203805 1.33895 -2.10591 -0.536639 
1.22557 -2.02712 -0.104854 1.32214 -2.33755 -0.200433 0.923461 0.96522 -2.54938 
0.782785 1.34112 -2.54303 1.04405 0.622696 -2.34788 0.80423 0.897519 -1.83125 
0.698586 1.35551 -2.18474 -0.421127 1.19952 0.926421 0.595376 1.74229 -2.4869 
0.488023 2.07147 -2.72983 0.904446 0.943019 -2.63311 1.47541 -1.07249 -2.36878 
1.38172 -0.590956 -2.39874 1.56915 -1.31835 -2.23845 1.35205 -2.89014 0.0803106 
1.52232 -1.46285 -2.34892 1.30265 -0.625161 -2.47141 1.67439 -1.96572 -2.01493 
1.58993 -1.40522 -2.05871 1.47708 -3.41917 -0.671143 1.55265 -3.54967 -1.00281 
0.809178 1.09442 -2.70464 1.35211 -3.02797 0.00489252 1.53703 -2.98107 -0.840535 
1.11912 -1.79595 0.0533951 1.10159 -0.160457 -2.54283 1.35134 -3.15437 -0.125075 
1.31427 -2.99115 0.141928 1.01741 -1.49392 0.0135676 1.32674 -3.32746 -0.353372 
1.34508 -3.24938 -0.242955 1.28834 -3.20125 -0.170724 1.67 0.373021 0.880427 
1.3142 -3.51148 -0.642081 1.28987 -3.37026 -0.440373 1.24919 -3.38032 -0.499299 
1.21102 -3.26703 -0.378256 1.40405 -3.29042 -0.3738 1.13909 -3.30904 -0.532423 
1.21239 -3.45271 -0.648519 1.22414 -3.40117 -0.560648 1.06207 -3.23045 -0.510868 
0.995173 -3.16557 -0.484313 1.08783 -3.32757 -0.595701 1.08201 -3.19406 -0.457796 
1.3075 -1.27206 -2.39488 1.54141 -1.84137 -2.31728 1.50789 -2.09879 -2.27789 
0.894857 -2.99524 -0.380562 0.906142 -3.07194 -0.425719 1.71266 -3.19936 -1.79058 
1.72659 -2.83896 -1.89875 1.6866 -3.22435 -1.89198 1.63384 -3.26702 -1.91003 
1.61331 -2.75433 -2.12224 1.19544 -3.491 -0.723579 0.789281 -2.94674 -0.324006 
0.664732 -2.76723 -0.186546 0.682257 -2.84708 -0.219902 0.789134 -3.08109 -0.392569 
0.74003 -2.96917 -0.304126 0.606193 -2.80136 -0.144483 0.537892 -2.78665 -0.0744972 
0.464543 -2.66499 0.0235847 0.788987 -3.12938 -0.441565 0.63615 -2.93678 -0.214957 
0.217227 -2.46712 0.339391 0.327292 -2.61237 0.189756 0.332374 -2.55981 0.188364 
0.399695 -2.56526 0.103796 -0.0777853 -2.05727 0.773898 0.0615734 -2.31886 0.556278 
0.0795673 -2.31977 0.532829 0.0890448 -2.29317 0.518051 -0.22467 -1.65934 1.02438 
-0.2134 -1.66813 1.00051 0.352708 -2.71995 0.110764 0.355279 -2.69212 0.137491 
0.188107 -2.51241 0.363241 1.6804 -2.44361 -1.68925 1.58334 -2.35035 -1.31638 
1.61496 -2.7646 -1.2582 0.462374 -2.76801 0.00796356 0.974225 -3.0151 -1.16529 
1.0616 -3.24257 -1.12616 0.566687 -2.93723 -0.22878 0.344778 -2.68788 0.0646252 
1.68001 -2.27388 -2.16045 0.400073 0.837239 1.26671 -0.100203 -1.91253 0.78137 
0.00606907 -2.21562 0.630242 -0.156096 -1.81326 0.892129 0.927322 0.114773 -2.56428 
1.10481 -0.5195 -2.48374 1.09426 -0.895048 -2.39475 -0.0838811 -1.57104 0.632454 
1.06762 -1.18864 -2.30128 0.93411 -0.713958 -2.35616 1.06731 -1.47633 -2.21103 
1.21318 -1.66904 -2.25541 0.202394 -1.87283 -0.03436 0.324339 -1.97773 -0.317598 
1.00487 -1.59226 -2.11447 1.14331 -1.96191 -2.09664 1.14235 -3.50115 -0.938098 
1.29722 -3.65729 -1.1077 0.945357 -1.9245 -1.90453 0.975556 -1.78164 -2.00598 
1.07776 -2.19268 -1.92637 0.978889 -2.78432 -1.38392 0.97153 -3.32336 -0.739817 
1.11863 -3.41585 -1.04598 0.871618 -1.30817 -2.10453 1.42798 -2.16783 -2.23806 
0.987533 -2.39503 -1.69088 0.886941 -2.20734 -1.65761 0.915361 -2.06749 -1.7878 
0.841665 -1.78172 -1.84944 0.840479 -2.40795 -1.42801 0.857957 -2.30739 -1.53848 
0.921033 -2.51846 -1.48986 0.634883 -2.75371 -0.629922 0.806731 -2.1121 -1.59373 
0.787337 -2.40712 -1.32038 0.588661 -2.5375 -0.693146 0.461631 -2.25742 -0.541329 
0.562865 -2.33153 -0.775268 0.68641 -2.38191 -1.08956 0.739749 -2.41418 -1.2021 
0.121939 -2.2776 0.362656 0.64081 -2.22 -1.09379 0.616597 -2.29189 -0.959945 
0.523417 -2.10197 -0.807733 0.418472 -1.81788 -0.652395 0.470911 -1.81541 -0.803318 
1.23859 -3.08205 -1.62199 1.10942 -2.71546 -1.6699 1.1832 -2.64186 -1.82283 
0.734682 -2.25716 -1.33881 -0.0903609 -1.80183 0.723275 1.60327 -3.62806 -1.62997 
1.56251 -3.34913 -1.84616 -0.427425 -0.400743 1.40243 -0.349664 -0.839381 1.22157 
-0.300581 -1.24661 1.15207 -0.248278 -1.27477 1.01054 -0.512567 0.674956 1.50059 
-0.394846 -0.315757 1.25962 -0.532059 0.658743 1.61189 -0.608801 1.67948 1.74194 
-0.503238 0.197953 1.59358 -0.577844 2.13521 1.37078 -0.623429 2.33629 1.58303 
-0.668684 2.66374 1.80413 -0.704247 3.46668 1.78166 -0.709401 3.92256 1.67224 
-0.688829 4.05164 1.49721 -0.648989 3.17444 1.4635 -0.573816 2.43719 1.25322 
-0.749268 4.42999 1.88617 -0.681961 4.57156 1.39291 -0.64356 3.90339 1.26955 
-0.692561 2.82756 1.98124 1.2729 -0.098068 -2.18285 -0.519319 2.14034 1.07643 
-0.480909 2.08225 0.922938 0.15852 -0.876251 -0.296857 0.0111052 -0.220971 -0.0889979 
1.20785 -2.43426 -1.95725 0.18785 -0.748769 -0.412142 0.303408 -1.4466 -0.490486 
-0.124321 0.587755 0.0797066 0.381724 -1.90431 -0.510514 -0.584741 3.48929 1.05564 
-0.523625 3.20743 0.842733 -0.51321 2.74627 0.891719 -0.595172 3.11109 1.18461 
-0.274304 1.49515 0.314632 -0.41474 2.44585 0.578135 -0.497586 3.38675 0.720707 
1.01887 -2.6764 -1.54429 -0.186395 1.2558 0.103634 1.40003 0.428111 0.938697 
0.77917 -3.13594 -0.502786 -2.23605 1.76237 0.960659 1.1315 0.391028 0.861806 