# vtk DataFile Version 3.0
vtk output
ASCII
DATASET POLYDATA
POINTS 853 float
14.1729 0.459084 30.5804 14.0504 -0.48918 30.4064 13.9889 -1.49738 30.1788 
13.9668 -2.57505 29.8351 13.9579 -3.77513 29.3601 13.9904 -5.01255 28.7448 
14.0305 -6.20479 27.9649 14.0878 -7.40153 26.9762 14.2007 -8.52546 25.8737 
14.3326 -9.51751 24.809 14.4733 -10.4773 23.7543 14.6007 -11.3825 22.7612 
14.691 -12.2434 21.7975 14.6868 -13.0602 20.8259 14.5832 -13.786 19.9047 
14.4564 -14.4491 18.9166 14.1987 -15.0035 17.8555 13.8098 -15.4555 16.7149 
13.3293 -15.7898 15.4674 12.6993 -16.0235 14.2131 12 -16.1266 13.0751 
11.4009 -15.9818 12.0761 11.0523 -15.5063 11.3353 11.012 -14.6696 10.9173 
11.2232 -13.5022 10.79 11.5107 -12.2405 11.0066 11.8688 -11.0923 11.5533 
12.3726 -10.1286 12.3543 12.8705 -9.36205 13.3326 13.0386 -8.75822 14.4046 
12.8338 -8.32539 15.4954 12.5497 -8.10519 16.5341 12.3821 -7.99792 17.4765 
12.2734 -7.847 18.383 12.1302 -7.54755 19.3047 11.9253 -7.03143 20.2302 
11.6995 -6.32551 21.1561 11.4946 -5.39979 22.1266 11.3769 -4.34129 23.1094 
11.3451 -3.20301 24.0849 11.4483 -1.97466 24.979 11.7108 -0.775752 25.6948 
12.0544 0.349245 26.2204 12.3764 1.35475 26.6151 12.6504 2.28419 27.0031 
12.9041 3.24245 27.3549 13.1255 4.18987 27.6819 13.3551 5.05149 28.0323 
13.6792 5.82071 28.386 14.152 6.50058 28.7306 14.7144 7.01766 29.073 
15.2885 7.27436 29.43 15.7687 7.21684 29.7578 16.0103 6.84667 30.0307 
15.9876 6.18051 30.2737 15.7364 5.2424 30.4954 15.3637 4.18386 30.6522 
14.9764 3.17452 30.7005 14.6175 2.23589 30.7254 14.3461 1.35029 30.7079 
14.1383 0.931642 30.2117 14.0385 0.319683 30.2121 13.9261 -0.435326 29.883 
13.9142 -1.02979 29.8608 13.8494 -1.93434 29.5118 13.8434 -2.70572 29.3244 
13.7733 -3.56211 28.8044 13.8282 -4.30705 28.5676 13.8213 -5.30171 27.8934 
13.8946 -6.1541 27.3691 13.8699 -6.91409 26.5844 13.9492 -7.63956 25.9312 
14.0548 -8.53761 24.99 14.1933 -9.23951 24.3313 14.2239 -9.85115 23.502 
14.3508 -10.4814 22.9589 14.399 -11.1791 22.0826 14.3964 -11.7597 21.3591 
14.3724 -12.3118 20.5677 14.3279 -12.8017 20.0975 14.187 -13.3536 19.2939 
13.9767 -13.7161 18.6758 13.7207 -14.0656 17.8391 13.4745 -14.4032 17.2205 
13.0839 -14.7331 16.2608 12.7498 -14.8332 15.5594 12.3969 -15.1071 14.6622 
12.0103 -15.1745 13.8367 11.5846 -15.3143 12.966 11.3588 -15.0655 12.4592 
11.1268 -14.9953 11.8971 11.0611 -14.5858 11.5586 11.1418 -13.918 11.3828 
11.2746 -13.2261 11.37 11.3855 -12.562 11.3964 11.5492 -11.8754 11.6511 
11.731 -11.2073 12.2375 11.9002 -10.7074 12.7329 12.0675 -10.241 13.4539 
12.2757 -9.82211 14.1746 12.3764 -9.46126 15.0575 12.4229 -9.30433 15.7524 
12.4115 -9.12621 16.5748 12.4515 -8.97176 17.1483 12.449 -8.72064 18.0329 
12.46 -8.65382 18.5782 12.3801 -8.22395 19.5592 12.2584 -7.90354 20.129 
12.0994 -7.26237 21.0166 11.9527 -6.83662 21.5965 11.7831 -5.88767 22.5833 
11.6707 -5.23 23.1622 11.6119 -4.2405 24.033 11.5702 -3.54376 24.6145 
11.6231 -2.34999 25.4491 11.7743 -1.61139 25.8924 11.9976 -0.559784 26.4347 
12.1971 0.175058 26.7453 12.3329 0.9365 26.9703 12.593 1.60304 27.2239 
12.8206 2.44294 27.4729 13.0527 2.97095 27.7432 13.2086 3.723 27.9193 
13.4707 4.34371 28.1347 13.7194 5.13494 28.3537 14.0301 5.64234 28.5767 
14.3333 6.18839 28.7982 14.6213 6.51303 28.9856 14.9942 6.85965 29.2138 
15.2467 6.86994 29.4031 15.5031 6.90377 29.5795 15.6682 6.7249 29.7616 
15.6713 6.26615 29.9435 15.6289 5.7668 30.155 15.3897 5.06435 30.1862 
15.2651 4.48196 30.338 14.9347 3.61291 30.3426 14.7163 2.96027 30.4605 
14.4504 2.24558 30.2991 14.3295 1.71112 30.3787 15.2937 6.34451 29.5513 
15.0101 6.46279 29.2869 15.2253 5.61328 29.809 14.5618 5.83016 29.0409 
14.9238 5.91086 29.3836 14.8681 4.40172 29.9062 14.0501 4.76445 28.7702 
14.6154 5.04143 29.342 14.4317 3.06937 29.9053 13.5578 3.47447 28.4741 
13.7744 0.486117 29.5218 14.05 1.78634 29.7724 12.7237 0.839177 27.7152 
13.1189 2.17069 28.1241 11.3134 -13.3555 11.9642 12.1588 -4.27715 25.1519 
12.1582 -2.45172 26.3163 14.1972 3.80785 29.2338 12.5099 -0.41986 27.2971 
11.2517 -14.1484 12.1727 11.4552 -12.4459 12.0391 13.419 -4.02159 27.6846 
13.5242 -2.43648 28.5794 13.5732 -0.940708 29.0635 13.852 -9.69182 22.6146 
13.8083 -11.7517 19.9402 11.7283 -6.20864 21.8873 12.299 -6.04482 23.6546 
12.3379 -8.17258 18.9598 11.4525 -2.82142 24.8284 11.5606 -14.1571 13.2186 
11.6833 -11.711 13.0369 13.4785 -5.65596 26.6321 13.7254 -8.49962 23.9133 
12.7701 -8.91084 20.3154 12.746 -9.6757 18.5915 13.5862 -6.83909 25.7003 
11.8378 -3.14798 25.4148 12.4737 -7.59425 21.9715 13.9025 -10.6752 21.3755 
13.0562 -13.1142 17.3634 13.7814 2.55023 29.0593 12.145 -6.69018 22.4622 
12.6641 -9.07015 19.3238 11.5178 -13.2184 12.7177 11.9926 -13.8909 14.422 
11.8803 -11.1851 14.2358 13.5427 -12.4936 18.7227 12.5833 -10.1796 17.0194 
12.4884 -13.6182 15.9658 12.2595 -10.6674 15.6488 12.5778 -3.55813 26.3926 
13.4299 1.38322 28.8466 11.7541 -12.767 13.8222 12.0439 -5.08678 24.2053 
12.7342 -5.43345 25.2769 12.6028 -9.75784 17.8122 12.59 -8.18502 21.1256 
12.9247 -7.37108 23.4354 13.2319 -10.1295 20.0403 12.8963 -2.62588 27.3776 
13.025 -11.0421 18.404 13.2557 -9.2968 21.4718 13.1161 -1.67207 28.0991 
12.9876 -0.811319 28.1313 13.4622 -13.1429 18.1147 13.033 -12.0159 17.8662 
13.8583 -12.4139 19.4557 13.3738 -11.5104 19.2125 12.3143 -14.1749 15.1972 
12.1554 -13.0401 15.219 12.3127 -12.1169 16.0335 12.889 -13.7689 16.716 
12.6044 -12.7795 16.664 12.6222 -11.4991 16.8705 12.084 -10.4576 14.8559 
12.0429 -11.5882 15.1207 12.4159 -10.1211 16.2951 13.1848 -8.50155 22.5138 
13.4998 -7.40226 24.7138 13.067 -6.39018 24.8576 12.8045 -10.9666 17.5924 
12.9408 -4.63704 26.3668 13.7526 -11.0526 20.4818 13.4064 -10.034 20.8071 
12.4902 -1.53532 27.1091 13.1616 0.163898 28.502 11.9299 -12.4376 14.6469 
13.1473 -10.5336 19.3667 14.1067 -14.3451 18.3505 13.8715 -13.968 18.2278 
13.9267 -14.4604 17.892 11.8284 -6.51894 21.7198 12.0386 -6.81076 21.9678 
11.8886 -6.42233 22.1203 13.6249 -14.2377 17.5663 13.8281 -14.7421 17.5008 
13.6417 -14.9326 17.0184 14.0034 -15.2386 17.2994 14.2261 -14.1056 18.7994 
14.355 -14.7451 18.3937 11.7416 -6.0346 22.2207 11.6273 -5.6647 22.3703 
11.6204 -5.88538 21.9432 14.2741 -13.0999 19.7051 14.4016 -13.6035 19.5872 
14.464 -13.2776 20.0455 14.6301 -13.4294 20.3703 14.5227 -12.9781 20.4317 
13.417 -13.686 17.6207 13.2657 -13.8181 17.3154 14.3256 -13.8808 19.1714 
14.0788 -13.5231 18.9895 13.8894 -12.9837 19.0297 13.7801 -13.1393 18.748 
14.5288 -14.1275 19.4205 12.4607 -8.69234 18.3462 12.5774 -9.18553 18.2945 
12.5905 -9.0976 18.5969 13.5909 -13.6055 17.9916 13.283 -13.1317 17.7684 
12.3044 -15.6393 13.9923 12.0279 -15.6832 13.5042 12.3517 -16.0974 13.6267 
12.3987 -8.39578 18.7581 12.2963 -8.02792 18.7183 12.3632 -8.2918 18.4665 
11.3964 -13.7105 12.481 11.402 -13.3053 12.2914 11.2915 -13.6918 12.0674 
11.7463 -15.7045 13.0093 11.7719 -15.2263 13.3619 12.2095 -15.1377 14.2566 
12.5507 -15.5816 14.463 11.5105 -15.6646 12.5814 11.6729 -16.0932 12.5616 
13.2279 -15.2706 15.9361 13.5904 -15.6417 16.1046 13.4317 -15.1233 16.4597 
13.2922 -14.6019 16.7473 12.9635 -13.483 17.0302 13.1419 -14.0599 16.9502 
12.806 -15.4814 14.992 12.9714 -15.2627 15.5032 12.6234 -15.0251 15.1504 
12.9122 -14.8083 15.8711 12 -10.7559 14.5796 12.1247 -10.1554 14.5463 
12.0384 -10.4169 14.1988 12.5022 -14.5087 15.3736 12.3334 -14.6145 14.9314 
13.0239 -15.9171 14.8275 11.9789 -5.97441 23.0031 11.9317 -5.6204 23.3616 
11.7344 -5.61423 22.8358 12.2203 -13.673 15.2093 12.3889 -13.9217 15.5417 
12.2943 -13.2896 15.5982 13.8338 -12.0916 19.7104 14.0867 -12.6026 19.7566 
14.1068 -12.3125 20.0528 13.2472 -7.36372 24.1399 13.2581 -6.9031 24.6932 
12.9624 -6.82668 24.1372 14.6519 -11.8162 22.281 14.5287 -11.3261 22.4014 
14.5608 -11.7056 21.971 14.2076 -9.53126 23.9245 14.0243 -8.90209 24.2216 
14.0116 -9.23991 23.6874 14.4787 -10.9018 22.8754 14.3601 -10.7612 22.5602 
14.5697 -12.3827 21.1668 14.71 -12.6606 21.3114 14.5689 -12.0312 21.591 
14.4268 -10.5214 23.2974 14.5407 -10.9417 23.244 12.5466 -7.89829 21.5795 
12.2652 -7.45607 21.4432 12.3234 -7.71085 21.0344 14.2721 -9.38241 24.5529 
14.3292 -9.79058 24.0989 14.4031 -9.99208 24.2888 13.7992 -0.59546 29.5563 
13.856 -0.0694287 29.7123 13.6536 -0.196665 29.2781 14.3554 -10.1243 23.6296 
14.214 -9.00452 24.9688 14.1204 -8.8981 24.6334 14.2641 -9.03214 25.3359 
14.1539 -8.56528 25.4402 14.0572 -9.70798 23.1733 14.1668 -10.1759 22.8072 
14.2829 -10.1765 23.219 13.8059 -1.0294 29.5515 13.7343 -1.5185 29.2931 
13.8756 -1.42401 29.6861 13.23 -2.59864 27.9572 13.3012 -1.97952 28.3095 
13.0163 -2.11251 27.7747 13.8916 -8.43455 24.5219 13.544 -9.50255 22.0319 
13.5939 -9.97734 21.4832 13.8688 -10.218 21.9221 14.4131 -11.5047 21.7009 
14.1196 -12.0536 20.283 14.3778 -12.5708 20.3668 14.1646 -11.2336 21.3539 
14.1773 -10.9387 21.7659 14.1418 -10.4821 22.2956 14.5352 -12.634 20.7259 
14.3899 -12.08 20.9305 12.0186 -7.02761 21.3531 12.1714 -7.17974 21.7452 
12.4912 -7.01443 22.8963 12.331 -7.17017 22.2663 12.6961 -7.56726 22.6358 
11.6887 -6.23754 21.5797 11.8224 -6.62415 21.3709 11.8971 -6.82991 21.0318 
12.1749 -7.58187 20.5686 11.9932 -7.1406 20.6148 12.0829 -7.4744 20.1468 
13.7531 -7.54785 25.331 13.7567 -7.23577 25.7855 13.5231 -7.06525 25.2249 
12.4813 -8.34676 20.2081 12.3349 -8.1012 19.801 12.5236 -8.51384 19.8593 
13.7722 -9.07609 23.2472 12.8775 -8.37677 21.7901 12.9155 -8.71006 21.3125 
13.2206 -8.90512 21.9799 14.0964 -8.06582 25.9617 13.9892 -8.07447 25.4479 
13.8602 -10.907 20.9544 14.1127 -11.4436 20.9667 11.5493 -5.28367 22.6639 
11.0893 -15.2576 11.6467 11.0769 -14.7683 11.7366 11.0327 -14.9941 11.4264 
11.49 -3.17735 24.6962 11.6892 -3.39862 24.9745 11.5904 -2.9655 25.0691 
11.0885 -14.2798 11.4799 11.07 -14.2454 11.1261 11.0294 -14.6556 11.2533 
10.9961 -15.1329 11.0883 11.2186 -15.4545 11.9406 11.1911 -15.7877 11.6605 
11.5232 -2.5659 25.1302 11.517 -2.16894 25.2327 11.4236 -2.49229 24.8528 
11.1252 -14.3615 11.8124 11.1798 -13.999 11.7639 11.3548 -15.4773 12.2976 
11.2427 -15.0616 12.1586 11.1523 -13.7892 11.0549 11.0874 -14.1209 10.821 
[...]
POINT_DATA 853
VECTORS velocity double
0.836765 -3.49887 -0.523105 1.03026 -3.50126 -0.61813 1.16807 -3.38918 -0.533809 
1.26993 -3.18012 -0.292684 1.33483 -2.85742 0.081946 1.32086 -2.45148 0.461238 
1.19302 -1.98553 0.692423 0.918989 -1.44203 0.755177 0.54699 -0.905667 0.740921 
0.182872 -0.475626 0.811345 -0.150833 -0.157215 1.03546 -0.403288 0.0157435 1.32138 
-0.542835 0.0470422 1.50466 -0.552121 -0.0407438 1.46439 -0.437413 -0.194557 1.20667 
-0.208839 -0.318679 0.806173 0.129837 -0.300663 0.437434 0.61383 -0.119569 0.233246 
1.25266 0.141632 0.248365 1.95949 0.26164 0.395065 2.50542 0.147256 0.522394 
2.68726 -0.00677726 0.582591 2.44515 0.0646432 0.634528 1.76243 0.508846 0.7527 
0.544661 1.31502 0.904134 -0.919985 2.09679 0.943014 -2.25373 2.48188 0.794854 
-3.26757 2.45843 0.535345 -3.79032 2.28619 0.292414 -3.92015 2.34022 0.0810072 
-3.83468 2.77398 -0.168945 -3.53456 3.34258 -0.440046 -3.11611 3.77307 -0.671426 
-2.65683 4.04629 -0.904417 -2.15112 4.17915 -1.22269 -1.57782 4.15826 -1.68521 
-0.916571 3.91331 -2.22539 -0.185648 3.37566 -2.75138 0.461741 2.52845 -3.05936 
0.878842 1.46516 -3.08243 0.992689 0.33181 -2.91735 0.923628 -0.755219 -2.65963 
0.816083 -1.67018 -2.34874 0.720727 -2.31358 -2.01853 0.638963 -2.74088 -1.68575 
0.510942 -2.8457 -1.34145 0.340105 -2.52117 -0.999432 0.142719 -1.76093 -0.634431 
-0.0947708 -0.557729 -0.181747 -0.369005 1.06035 0.401062 -0.624371 2.74028 1.04508 
-0.828369 3.98029 1.66943 -0.962512 4.43602 2.15944 -1.01479 3.98032 2.408 
-0.976268 2.62622 2.37426 -0.798836 0.565237 1.98689 -0.475138 -1.35073 1.33389 
-0.0885993 -2.53733 0.661309 0.283365 -3.13221 0.110729 0.589961 -3.38527 -0.275053 
0.80819 -3.71093 -0.577742 0.950774 -3.70919 -0.68715 1.13249 -3.75633 -0.835707 
1.19929 -3.63553 -0.773284 1.31668 -3.4628 -0.691695 1.36212 -3.21986 -0.472474 
1.42158 -2.89864 -0.314535 1.39762 -2.6082 -0.0259758 1.32584 -2.12894 0.17543 
1.17539 -1.73914 0.369198 0.963315 -1.25108 0.373135 0.712632 -0.861252 0.440157 
0.351738 -0.366307 0.526872 0.0910775 -0.10365 0.675679 -0.186726 0.234995 0.845629 
-0.362349 0.314532 1.06861 -0.579489 0.487008 1.31397 -0.69353 0.541053 1.44826 
-0.740599 0.544013 1.4498 -0.687621 0.401111 1.38229 -0.568717 0.279228 1.15377 
-0.425728 0.214059 0.943538 -0.191873 0.208761 0.704771 0.0859395 0.190806 0.5535 
0.539008 0.293103 0.489436 0.864861 0.41493 0.565396 1.3967 0.467377 0.648276 
1.7786 0.486874 0.768492 2.16541 0.380808 0.802021 2.08893 0.435989 0.871668 
2.0924 0.402929 0.844639 1.7352 0.612455 0.896741 1.04101 1.04728 0.99604 
0.241933 1.51088 1.07451 -0.543237 1.90553 1.08578 -1.36245 2.20974 1.0594 
-2.13087 2.31653 1.0117 -2.65219 2.29932 0.909468 -3.03647 2.20233 0.790747 
-3.2819 2.17826 0.621496 -3.30801 2.29816 0.427159 -3.17199 2.48445 0.29769 
-2.95052 2.79636 0.120173 -2.79192 3.0423 -0.0187148 -2.4975 3.38008 -0.239137 
-2.24749 3.4507 -0.301331 -1.83934 3.59685 -0.626138 -1.5549 3.60278 -0.882053 
-1.04019 3.46483 -1.35691 -0.65252 3.23774 -1.64723 0.0415796 2.67296 -2.17095 
0.442451 2.22811 -2.44759 0.932116 1.36947 -2.65616 1.15198 0.732367 -2.6966 
1.26035 -0.29164 -2.66196 1.22427 -0.940687 -2.58547 1.12013 -1.78407 -2.41047 
1.03281 -2.29442 -2.24145 0.923751 -2.62789 -2.05022 0.836782 -2.96258 -1.81406 
0.69767 -3.12675 -1.51714 0.594461 -3.19309 -1.25474 0.421209 -2.9244 -0.975913 
0.226185 -2.47398 -0.639284 -0.0145556 -1.50943 -0.25141 -0.229074 -0.539334 0.15211 
-0.431416 0.715593 0.563366 -0.581314 1.67699 0.917274 -0.739305 2.83076 1.34529 
-0.832492 3.18987 1.63817 -0.909948 3.57109 1.90841 -0.95356 3.41677 2.09544 
-0.936101 2.50359 2.11778 -0.874002 1.45183 2.04634 -0.693253 -0.0997668 1.66219 
-0.525577 -1.10741 1.37275 -0.188262 -2.35392 0.781629 0.0653537 -2.91421 0.400906 
0.373962 -3.39758 -0.0562298 0.54813 -3.52416 -0.266588 -0.839041 2.22753 1.71158 
-0.743296 2.09864 1.38175 -0.748097 0.714382 1.63072 -0.505512 0.339263 0.827152 
-0.674329 0.926477 1.29426 -0.374473 -1.62547 0.98972 -0.0936166 -1.81758 0.0907455 
-0.410688 -0.954354 0.832213 0.165159 -3.17571 0.16121 0.399637 -3.22147 -0.673506 
1.06515 -3.99417 -0.983951 0.672733 -3.82028 -0.530753 1.09951 -3.41093 -1.81235 
0.808517 -3.62657 -1.31807 0.38455 1.40295 1.19482 1.3274 -0.085832 -2.0294 
1.50219 -1.49073 -2.23191 0.0693573 -2.81578 0.0886451 1.29626 -2.91296 -2.08634 
1.27216 0.914563 1.0929 -0.704348 1.89422 1.23193 1.50972 -2.39485 -0.705811 
1.48205 -3.28108 -0.990909 1.34559 -3.82041 -1.18109 -0.437762 0.914445 0.760509 
-0.955362 1.19924 1.32511 -0.412922 3.28528 -2.14858 0.531577 1.36939 -1.5445 
-2.20397 3.77421 -0.680446 1.13394 0.53365 -2.83691 1.13305 0.891522 1.15549 
-1.55604 1.96107 1.29192 1.24861 -1.40611 -0.312798 0.0818066 0.413879 0.296498 
-1.31837 2.81433 0.0153395 -1.84664 2.76086 0.383968 0.855892 -0.683464 -0.0550833 
1.3839 -0.308591 -2.44432 -0.512735 2.46935 -0.823964 -0.798273 1.19085 1.16157 
-0.522071 0.87053 0.904584 0.579073 -3.74223 -0.638236 -0.143218 2.4499 -1.496 
-1.74276 3.06226 0.0346396 0.160919 1.40746 1.31737 0.595894 0.897113 1.11236 
-1.97562 1.8222 1.20611 -0.850476 1.04271 1.14405 -2.14187 2.3261 0.621956 
0.0251448 0.801107 0.898275 -2.18043 1.91888 0.917507 1.56983 -1.51682 -1.73323 
0.977128 -4.01038 -1.1714 -0.407905 1.4037 1.39572 0.932333 0.964477 -2.01642 
1.16084 -0.298111 -1.19731 -2.09573 2.68522 0.398715 -0.973982 2.79621 -0.473149 
0.150265 1.18168 -0.558186 -1.23724 2.1749 0.789742 1.59189 -2.61124 -1.60453 
-1.38485 1.9731 0.952507 -0.813937 1.91242 0.444462 1.51452 -3.35678 -1.53574 
1.43054 -3.56805 -1.69271 -0.591173 0.732679 0.964601 -1.04901 1.44763 1.03953 
-0.843579 0.904926 1.28552 -1.11338 1.59268 1.16356 0.608101 0.700469 0.875088 
-0.27346 1.09757 1.17604 -1.01553 1.38716 1.12394 -0.0690988 0.627489 0.756582 
-0.607616 1.10012 0.989355 -1.38531 1.682 0.997837 -2.53258 1.96815 0.911976 
-1.49271 1.59638 1.22023 -2.40516 2.22746 0.643251 -0.375957 1.54665 0.0431022 
0.514433 0.0269103 -0.102479 0.812445 0.0273136 -0.71032 -1.56736 1.99575 0.884861 
1.45616 -1.35417 -1.12275 -0.98114 1.42636 1.23198 -1.011 1.8856 0.823634 
1.47679 -2.55534 -2.07351 1.26938 -3.90076 -1.53727 -0.75401 1.37186 1.33886 
-1.33858 2.14607 0.890913 -0.173463 -0.0973519 0.710791 -0.288766 0.167911 0.791382 
-0.0546179 -0.0336044 0.598547 -0.548444 3.29475 -1.9138 -0.429349 2.89632 -1.55924 
-0.294884 2.93944 -1.87174 -0.0682792 0.183677 0.625115 0.136696 -0.0649339 0.46928 
0.346881 -0.00663018 0.38598 0.351136 -0.226877 0.310318 -0.305473 -0.0779721 0.872412 
-0.0535774 -0.333477 0.606105 -0.188708 3.01385 -2.1865 -0.0562574 3.00501 -2.4479 
-0.346701 3.37618 -2.41494 -0.634639 0.32831 1.28024 -0.492639 0.0198618 1.17189 
-0.569116 0.094353 1.32416 -0.510072 -0.113458 1.36223 -0.612854 0.157749 1.42068 
-0.306405 0.491657 0.785059 -0.187153 0.4847 0.730417 -0.401365 -0.0412216 1.01474 
-0.509203 0.254731 1.05469 -0.686637 0.622343 1.15715 -0.629671 0.592821 1.07633 
-0.336683 -0.26794 1.01421 -2.35164 3.42194 -0.26899 -2.1673 3.07877 0.0700004 
-2.06712 3.13713 0.0176134 -0.39551 0.458179 0.84721 -0.563369 0.800868 0.925843 
1.952 0.353305 0.573584 2.18365 0.317114 0.630298 2.26733 0.226878 0.466878 
-2.24562 3.62946 -0.499133 -2.39346 3.90838 -0.79006 -2.44614 3.71761 -0.571162 
0.755902 1.16491 1.21934 0.300197 1.40903 1.25477 0.770437 1.19424 1.16622 
2.37151 0.251715 0.668667 1.98617 0.450449 0.806513 1.58657 0.489316 0.713958 
1.70532 0.353344 0.508927 2.46246 0.197508 0.693036 2.64917 0.0572161 0.559718 
0.884094 0.177876 0.348844 0.915539 0.0108414 0.213512 0.614754 0.0833654 0.342365 
0.310862 0.222621 0.493197 -0.2838 0.720359 0.819178 0.0117809 0.436544 0.657639 
1.4064 0.318985 0.440186 1.07787 0.28579 0.420449 1.13677 0.427088 0.577113 
0.724046 0.357163 0.518291 -2.32632 1.89676 1.04602 -2.88157 2.06997 0.790877 
-2.72782 2.03377 0.914176 0.762599 0.559421 0.721071 0.994265 0.589087 0.77549 
1.61249 0.233375 0.317389 0.251749 2.15274 -1.9105 0.487374 1.85585 -2.04128 
0.219399 2.48812 -2.29411 0.235263 0.874553 1.0293 0.333032 0.742004 0.887258 
-0.129559 0.967682 1.05208 -0.905941 1.05069 1.32376 -0.769106 0.66719 1.33562 
-0.812479 0.76301 1.38827 0.374339 0.524139 -0.321699 0.634507 0.114259 -0.425017 
0.506734 0.646866 -0.704138 -0.488397 0.0481035 1.43526 -0.492594 0.234666 1.33259 
-0.566078 0.261031 1.43026 -0.0460405 0.0726437 0.745654 0.10484 0.0676737 0.534096 
-0.082178 0.335999 0.61584 -0.385842 0.174478 1.19646 -0.470592 0.425095 1.17471 
-0.635468 0.246074 1.50331 -0.563633 0.0145313 1.51507 -0.610691 0.26471 1.48568 
-0.272051 0.0936355 1.06588 -0.291256 -0.0507901 1.18271 -0.735554 2.62691 -0.639775 
-0.78685 3.00346 -1.08345 -1.02876 3.16308 -0.924806 0.132491 -0.284376 0.745548 
-0.0215796 -0.124426 0.839195 0.012857 -0.303703 0.903606 1.219 -3.83339 -0.975891 
1.12044 -3.88125 -0.925918 1.22351 -3.9635 -1.13858 -0.167959 0.0490597 0.936439 
0.278988 -0.449517 0.684486 0.211113 -0.210463 0.593765 0.361557 -0.676324 0.758398 
0.448849 -0.656507 0.640868 -0.270669 0.515243 0.784876 -0.398756 0.552453 0.96872 
-0.282472 0.286175 0.960463 1.26214 -3.73118 -0.917651 1.34233 -3.63556 -0.931671 
1.26113 -3.58313 -0.764816 1.55706 -3.00109 -1.28099 1.51018 -3.36265 -1.32121 
1.55787 -3.04007 -1.57561 0.255379 -0.0223168 0.384011 -0.618421 1.42061 0.626283 
-0.799749 1.52855 0.849656 -0.660074 1.11563 0.986567 -0.646403 0.514478 1.40055 
-0.838572 0.846371 1.40592 -0.712696 0.453327 1.42956 -0.756072 0.866222 1.33979 
-0.676469 0.806361 1.25706 -0.547918 0.732315 1.09323 -0.652846 0.267659 1.47005 
-0.727224 0.542423 1.46926 -0.818663 3.3398 -1.51926 -0.593756 2.90565 -1.27539 
0.00955111 1.85342 -1.04247 -0.313387 2.41644 -1.12471 -0.200008 1.87037 -0.656869 
-0.616265 3.57529 -2.21289 -0.783179 3.56148 -1.90548 -1.02277 3.72507 -1.7733 
-1.31404 3.57341 -1.12807 -1.30542 3.83907 -1.54116 -1.59576 3.8992 -1.2788 
0.61851 -0.456626 0.18543 0.775985 -0.750123 0.194201 0.71133 -0.338783 -0.117 
-1.44932 3.2475 -0.470369 -1.72219 3.60299 -0.723454 -1.61027 3.28132 -0.358006 
-0.193199 0.720743 0.498121 -0.661315 2.188 -0.185186 -0.880832 2.34961 -0.00120505 
-0.612105 1.76428 0.242411 0.637345 -0.908586 0.618482 0.53399 -0.592688 0.462907 
-0.887747 1.28414 1.22433 -0.819759 0.939919 1.37632 0.158622 2.80925 -2.63369 
2.29464 0.233469 0.741567 1.90437 0.514407 0.882221 2.08674 0.353053 0.775409 
1.14184 0.674098 -2.79417 1.27141 0.2644 -2.57115 1.24947 0.190153 -2.67997 
1.43109 0.806318 0.949167 1.37677 0.810701 0.881551 1.78392 0.545674 0.823368 
2.16514 0.236224 0.683995 2.42087 0.181629 0.720709 2.61726 -0.0117475 0.602909 
1.19633 0.139069 -2.7591 1.14137 0.00523598 -2.78869 1.07356 0.512926 -2.89998 
1.51631 0.76909 0.992238 1.13126 1.00182 1.0589 2.40157 0.227497 0.740473 
2.12451 0.402731 0.852089 0.883626 1.12556 0.939277 1.22134 0.877927 0.833611 
0.29315 1.47251 1.13902 0.625166 1.29517 1.03484 0.722674 1.23786 1.10319 
1.75589 0.628161 0.961806 2.14258 0.402543 0.843053 0.383287 1.43042 0.999715 
-0.131774 1.70758 1.08612 -0.0982671 1.69683 1.01426 -0.192242 1.74309 0.94431 
-0.680026 1.98141 1.02238 -1.76845 2.35052 0.954473 -1.61556 2.34701 0.891209 
-1.2268 2.19861 1.00041 -0.946206 2.0679 1.08856 -0.0568748 1.61363 1.23274 
-0.177342 1.7085 1.16271 0.607099 -3.66346 -0.375782 0.769783 -3.80268 -0.58825 
0.674471 -3.63464 -0.426772 1.20967 0.917894 1.14381 1.71811 0.655915 0.99653 
1.69219 0.656174 1.00917 -0.627093 1.91685 1.14947 -1.13811 2.09765 1.14387 
-2.81325 2.51098 0.669119 -2.28337 2.42438 0.882671 -2.71756 2.43086 0.791308 
-2.45755 2.31633 0.954472 -2.94153 2.37507 0.759295 -2.81931 2.25897 0.870283 
-3.27507 2.33603 0.63165 0.332034 -3.38854 -0.291503 0.246375 -3.09345 -0.293592 
0.496405 -3.5392 -0.659091 -3.59284 2.36601 0.407336 -3.49628 2.28181 0.527773 
-1.72013 2.27914 1.05093 -1.83508 2.16029 1.16194 -1.46767 2.14206 1.17134 
-1.09424 1.94346 1.29111 0.892419 -3.96292 -0.809479 0.914258 -3.86654 -0.746405 
-0.319317 1.66814 1.30828 1.15552 -2.54697 -2.19847 1.21254 -3.18472 -1.97676 
1.09185 -2.833 -2.07299 -2.62062 3.70991 -0.559754 -2.32442 3.04285 0.0781977 
-1.96219 2.72852 0.395715 -2.89576 3.93739 -0.792567 -2.8075 3.59355 -0.468042 
-2.99536 3.39831 -0.338759 -2.66222 3.24103 -0.145933 -2.21757 3.96878 -0.916803 
-2.02745 3.71058 -0.670214 -1.98206 3.86564 -0.901691 -2.89869 2.91838 0.0467045 
-2.57492 2.58395 0.36159 -2.4873 2.68341 0.312951 -1.83331 3.90862 -1.06767 
-1.86827 4.18969 -1.44012 -1.26541 4.07211 -1.94877 -0.808049 1.53716 1.6948 
-0.863105 1.71445 1.90736 -0.887909 2.27436 1.91363 -0.667434 1.87077 1.15562 
-0.743958 2.52444 1.36142 -0.671964 2.31794 1.15347 -0.346872 -0.268397 0.444368 
-0.46115 0.564083 0.659827 -0.355887 0.206567 0.40319 -0.55732 3.69032 -2.50049 
-2.41414 4.12713 -1.04264 -1.00468 1.66193 1.05521 -1.1215 2.03065 0.819307 
-1.12221 1.85146 1.01675 -0.493664 1.10864 0.706722 -0.569755 1.16226 0.917073 
-3.69359 2.36572 0.231471 -3.68906 2.27463 0.339981 -3.34138 2.22213 0.512261 
-2.56185 2.0376 1.0125 -2.37193 2.09272 1.08328 -1.79004 1.87307 1.27703 
-0.0119012 -2.39412 0.092935 -0.187799 -1.98574 0.476515 -0.254973 -1.44735 0.475311 
-3.62453 2.25606 0.435598 -3.88905 2.26691 0.187189 -3.90175 2.51658 -0.0353909 
-3.64313 2.50744 0.130618 -3.18304 2.17643 0.708059 -3.23296 3.01659 -0.112483 
-3.16588 3.22618 -0.246946 -3.32781 3.56969 -0.550931 -3.09423 2.67717 0.170488 
-3.42808 2.86126 -0.0576473 -3.71338 3.06735 -0.311087 -3.55354 2.66107 0.0463893 
-0.759422 1.52563 1.50454 -0.703824 0.792062 1.43028 -3.23553 2.37331 0.373926 
-0.576417 0.105656 1.11514 -0.603367 0.641309 1.09672 -0.455364 -0.379942 0.816456 
-1.74413 1.80285 0.976947 -1.9485 1.991 0.850357 -2.29096 2.06124 0.783399 
0.338156 -2.76913 -0.820781 0.416242 -3.05334 -0.85986 0.278958 -2.80525 -0.608964 
-0.713112 1.49624 1.34182 -0.647499 1.31182 1.14305 -2.38826 1.94358 0.914777 
-2.7998 2.13684 0.676857 -2.90528 2.11364 0.70079 -1.80195 3.37049 -0.340177 
-1.53616 2.96151 0.0346443 0.545647 -3.29488 -1.03766 0.506079 -3.088 -1.10865 
0.165855 2.98046 -2.94726 0.438276 2.44006 -2.78122 -2.02486 3.2931 -0.155874 
-2.01639 3.49007 -0.393855 0.943976 -1.34995 0.557927 0.847849 -1.08114 0.430829 
0.806331 -1.15678 0.610386 0.733952 -1.16025 0.746709 1.22671 -0.891335 -0.774833 
1.00341 -0.162263 -0.94541 1.06243 -0.686864 -0.552011 1.07077 -1.61569 0.576575 
1.08066 -1.501 0.370544 1.1822 -1.86178 0.532242 1.07732 -1.72699 0.742095 
1.13619 0.468483 -2.0078 1.13281 0.716256 -2.37382 0.942185 1.17343 -2.34257 
1.32388 -2.3035 0.350691 1.26221 -2.07573 0.459806 1.27345 -2.22655 0.598291 
1.46766 -2.76701 -0.479622 1.43862 -2.54471 -0.262414 1.4143 -2.74894 -0.169063 
1.33944 -2.65961 0.287485 1.3724 -2.73371 0.0575377 1.36034 -2.53759 0.209039 
1.38129 -2.39744 0.0493027 1.25385 -1.90906 0.272644 1.41152 -3.27557 -0.677329 
1.45729 -3.05296 -0.629244 1.39698 -3.07885 -0.401074 1.41585 -1.90861 -0.478108 
1.32295 -1.89223 -0.0663799 1.40958 -2.22561 -0.209251 1.02806 1.10135 -2.88311 
0.902669 1.50155 -2.90853 1.07552 0.992537 -2.68105 0.709116 1.58697 -2.23003 
0.702542 1.83679 -2.58912 -0.79007 2.16052 1.53707 0.707639 1.96656 -2.87574 
0.702424 2.02206 -3.10081 1.03238 0.924072 -2.94776 1.37947 -0.819402 -2.48618 
1.33251 -0.322002 -2.57306 1.46525 -0.920185 -2.32484 1.37918 -2.89455 -0.125273 
1.38725 -1.26432 -2.42502 1.24875 -0.563384 -2.63654 1.56134 -1.54315 -2.01558 
1.50104 -0.905203 -2.12721 1.39548 -3.45649 -0.843886 1.43048 -3.57812 -1.12109 
0.968694 0.911057 -3.01907 1.34834 -3.05731 -0.231808 1.52352 -2.87895 -0.889967 
1.21264 -1.65961 0.11432 1.10331 -0.307739 -2.75147 1.3172 -3.20635 -0.373464 
1.30791 -3.03503 -0.120649 1.08805 -1.32198 0.105152 1.24228 -3.43274 -0.59209 
1.28578 -3.32365 -0.4907 1.2235 -3.29839 -0.432534 1.7648 0.591758 0.956395 
1.17176 -3.70201 -0.815594 1.18242 -3.52003 -0.66043 1.12394 -3.57809 -0.693934 
1.1038 -3.45384 -0.594344 1.34817 -3.34038 -0.593385 0.986195 -3.61817 -0.664897 
1.04333 -3.74629 -0.770651 1.0809 -3.64261 -0.725112 0.895524 -3.60681 -0.603295 
0.812809 -3.59496 -0.536652 0.894668 -3.72843 -0.654847 0.939636 -3.51588 -0.592471 
1.18285 -1.40104 -2.50141 1.36928 -1.72847 -2.36091 1.31178 -2.11453 -2.30797 
0.720769 -3.45651 -0.417004 0.705139 -3.5523 -0.42911 1.52506 -3.0793 -1.77024 
1.55983 -2.61363 -1.86356 1.46566 -3.17436 -1.87119 1.39331 -3.31486 -1.89073 
1.38367 -2.74639 -2.108 0.996836 -3.84314 -0.796265 0.566747 -3.46112 -0.268017 
0.444093 -3.27948 -0.0984746 0.434432 -3.35598 -0.10304 0.486993 -3.58484 -0.238332 
0.468155 -3.47864 -0.173507 0.327691 -3.27253 0.0311915 0.218699 -3.17862 0.168843 
0.161335 -3.03221 0.271598 0.443164 -3.59941 -0.238283 0.298424 -3.35695 0.0200552 
-0.153594 -2.42179 0.752316 -0.0450789 -2.70488 0.561317 -0.00449863 -2.74761 0.519983 
0.102823 -2.89391 0.366076 -0.506505 -1.21564 1.36676 -0.372989 -1.75524 1.0927 
-0.324229 -1.92849 1.03673 -0.284507 -2.03296 0.988383 -0.649249 -0.481931 1.67579 
-0.654844 -0.432249 1.65129 -0.0990978 -2.56956 0.544387 -0.053039 -2.71032 0.534095 
-0.257062 -2.13639 0.854713 1.60065 -2.09836 -1.64276 1.57332 -2.03576 -1.25981 
1.58071 -2.54845 -1.23097 0.0968312 -3.01632 0.325163 0.621752 -3.54431 -0.999511 
0.718203 -3.77684 -0.980166 0.119856 -3.0507 0.128827 -0.148239 -2.31901 0.527949 
1.50471 -2.01371 -2.1548 0.614694 1.16387 1.2742 -0.577608 -0.73347 1.39843 
-0.45686 -1.37962 1.20576 -0.614874 -0.618765 1.52659 0.964604 -0.230466 -2.79588 
1.0635 -0.765668 -2.66013 1.01411 -1.24982 -2.53896 -0.585322 -0.207863 1.23302 
0.961686 -1.64552 -2.4181 0.875816 -1.24007 -2.5118 0.938361 -1.99368 -2.29996 
1.0602 -2.0335 -2.33236 -0.322606 -0.797941 0.490373 -0.192552 -1.08657 0.161598 
0.871195 -2.20665 -2.18527 0.977366 -2.47956 -2.14652 0.842479 -3.98882 -0.855718 
1.02906 -4.055 -1.08512 0.781168 -2.64319 -1.92037 0.827379 -2.45774 -2.04948 
0.895616 -2.82144 -1.94227 0.67597 -3.39557 -1.26352 0.630337 -3.82938 -0.58148 
0.791213 -3.93043 -0.925366 0.759634 -2.01333 -2.18338 1.22732 -2.32762 -2.2702 
0.767331 -3.09507 -1.64875 0.673652 -2.94537 -1.60532 0.730092 -2.81113 -1.77165 
0.682641 -2.55997 -1.85232 0.558509 -3.03204 -1.30316 0.61275 -3.00381 -1.44991 
0.653163 -3.18246 -1.39175 0.153365 -2.68081 -0.283365 0.585708 -2.84571 -1.51842 
0.469969 -2.91054 -1.15463 0.103856 -2.30105 -0.33389 -0.04349 -1.66331 -0.12289 
0.0904784 -1.99998 -0.417372 0.290255 -2.49802 -0.833343 0.381413 -2.73799 -0.991425 
-0.392529 -1.33306 0.912406 0.246499 -2.19981 -0.824093 0.184569 -2.14157 -0.652123 
0.0647631 -1.64163 -0.442966 -0.050405 -1.09495 -0.233685 0.0289551 -1.21163 -0.422588 
0.974227 -3.61185 -1.57049 0.866503 -3.34208 -1.62285 0.960981 -3.20885 -1.80722 
0.424952 -2.72938 -1.16765 -0.58365 -0.519727 1.33258 1.36762 -3.74217 -1.63585 
1.31083 -3.51468 -1.82721 -0.854034 1.12395 2.05611 -0.795602 0.683903 1.87574 
-0.746579 0.205655 1.81895 -0.71618 0.19097 1.65251 -0.909558 1.97003 2.09469 
-0.830295 1.17018 1.8901 -0.92733 1.99053 2.20953 -0.967326 2.67633 2.27719 
-0.909179 1.65863 2.22708 -0.908735 2.8499 1.93319 -0.950222 3.01957 2.11222 
-0.986956 3.26637 2.28996 -0.986967 3.7206 2.24986 -0.968966 3.96415 2.1584 
-0.936066 4.00681 2.02216 -0.932731 3.4785 1.99952 -0.886034 2.9997 1.82858 
-0.99847 4.32177 2.31502 -0.905886 4.31638 1.94159 -0.886771 3.87086 1.83996 
-1.00905 3.41115 2.43127 1.24069 0.412478 -2.44598 -0.840845 2.77843 1.67394 
-0.799754 2.70466 1.53619 -0.286583 0.155663 0.22968 -0.402471 0.812655 0.484004 
1.0069 -2.95247 -1.97014 -0.228568 0.201533 0.0933226 -0.162789 -0.531845 -0.0195268 
-0.490183 1.47914 0.686142 -0.113096 -1.10885 -0.0634669 -0.835895 3.5767 1.66005 
-0.776978 3.36237 1.47331 -0.793873 3.0964 1.51299 -0.870688 3.37785 1.76761 
-0.594722 2.16713 0.948729 -0.693482 2.83605 1.22141 -0.733227 3.44259 1.36369 
0.757127 -3.33299 -1.46689 -0.50317 1.93399 0.722766 1.47877 0.674859 0.982688 
0.387121 -3.53744 -0.251324 -2.27367 2.18891 1.07536 1.12158 0.645029 0.866847 
1.26449 0.680078 0.940218 0.839052 0.91614 1.15983 1.52954 -1.46318 -1.40307 