# vtk DataFile Version 3.0
vtk output
ASCII
DATASET POLYDATA
POINTS 853 float
14.8912 -1.78821 30.3024 14.8929 -2.84439 30.1284 14.9054 -3.84723 30.012 
14.92 -4.81951 29.8605 14.9108 -5.82182 29.6335 14.8957 -6.80266 29.2258 
14.8318 -7.69356 28.5123 14.7118 -8.52277 27.4749 14.5958 -9.27087 26.345 
14.4977 -9.95712 25.3655 14.421 -10.6933 24.4903 14.3799 -11.4809 23.6886 
14.3734 -12.3207 22.8363 14.3666 -13.1995 21.8104 14.3639 -14.0402 20.655 
14.4406 -14.7887 19.3378 14.4742 -15.3059 18.0447 14.4627 -15.6107 16.8401 
14.4299 -15.7677 15.6555 14.26 -15.9215 14.4886 13.9121 -16.0948 13.3841 
13.4271 -16.0751 12.3698 12.8698 -15.5986 11.6349 12.2144 -14.4885 11.3137 
11.3511 -12.733 11.3371 10.5474 -10.9066 11.5362 10.0898 -9.53302 11.879 
10.0581 -8.60761 12.491 10.3219 -7.96371 13.3628 10.4612 -7.35319 14.3109 
10.3054 -6.67463 15.1815 10.201 -6.12822 15.9876 10.3385 -5.79308 16.7698 
10.5891 -5.50909 17.5497 10.8137 -5.13291 18.3123 10.9639 -4.56974 18.9986 
11.1141 -3.9093 19.6572 11.3194 -3.19146 20.3813 11.5941 -2.59106 21.2309 
11.8614 -2.11208 22.1866 12.1113 -1.58156 23.1365 12.4041 -1.02238 23.9681 
12.7219 -0.407742 24.6506 13.0052 0.234864 25.2193 13.2527 0.878066 25.7834 
13.4608 1.67251 26.3132 13.6159 2.59722 26.8106 13.7511 3.6127 27.3483 
13.9227 4.84907 27.9446 14.1735 6.53472 28.5994 14.491 8.58269 29.3029 
14.8754 10.1846 30.1262 15.2658 10.5549 30.9388 15.5083 9.51214 31.429 
15.564 7.14151 31.5105 15.4362 4.58138 31.451 15.2668 2.76662 31.2605 
15.1164 1.44895 30.9691 14.9818 0.322074 30.7261 14.9006 -0.727827 30.5306 
14.8743 -1.43468 29.8424 14.8583 -2.11426 29.8188 14.8696 -2.99706 29.4211 
14.8821 -3.54695 29.48 14.8682 -4.38145 29.2017 14.8574 -5.00392 29.1751 
14.7873 -5.6681 28.7138 14.7952 -6.21846 28.6594 14.7112 -6.903 28.0388 
14.6794 -7.49144 27.5973 14.5264 -7.92727 26.7609 14.4584 -8.38178 26.1528 
14.3484 -8.92936 25.3091 14.3208 -9.4332 24.7892 14.1775 -9.80027 24.1027 
14.1811 -10.3608 23.7187 14.0821 -10.9226 23.0084 13.9961 -11.4501 22.3746 
13.9353 -11.9854 21.5805 13.9256 -12.5814 21.0452 13.8842 -13.2349 20.047 
13.7946 -13.6595 19.2623 13.7317 -14.0318 18.2678 13.6969 -14.3892 17.5649 
13.6225 -14.6588 16.6055 13.4884 -14.688 15.9755 13.4797 -14.9252 15.1287 
13.3243 -14.9773 14.3625 13.159 -15.1751 13.4747 12.8433 -14.9066 13.0003 
12.6004 -14.8643 12.3939 12.2074 -14.3251 12.0967 11.6739 -13.3582 12.0202 
11.1592 -12.3349 12.0828 10.6968 -11.3881 12.0948 10.3411 -10.5133 12.2868 
10.1215 -9.82147 12.8273 10.0452 -9.35983 13.2567 10.0829 -8.99009 13.9367 
10.2222 -8.61778 14.5699 10.3711 -8.23007 15.332 10.5484 -8.00584 15.9442 
10.709 -7.68953 16.6378 10.8716 -7.4153 17.1073 11.0893 -6.99565 17.8372 
11.3019 -6.91428 18.3688 11.5008 -6.41751 19.1633 11.5502 -6.09569 19.5916 
11.6881 -5.5264 20.2201 11.7579 -5.22997 20.6504 11.9692 -4.58801 21.3327 
12.0709 -4.15973 21.7276 12.3053 -3.67144 22.4126 12.4132 -3.34904 22.9103 
12.5824 -2.72671 23.6818 12.7486 -2.33966 24.1371 12.9353 -1.7062 24.7687 
13.0849 -1.20591 25.1815 13.1375 -0.548449 25.5356 13.3522 -0.0570555 25.9247 
13.5013 0.696324 26.3451 13.6955 1.119 26.7591 13.7638 1.91609 27.0814 
13.9331 2.60471 27.4726 14.0417 3.68178 27.8957 14.2079 4.57591 28.3426 
14.3428 5.86213 28.7868 14.4942 6.93439 29.1707 14.7048 8.41969 29.6616 
14.8817 8.7838 30.078 15.0721 9.21872 30.4873 15.2248 8.77057 30.8296 
15.2798 7.17464 30.993 15.2914 5.68167 31.1464 15.1831 4.03785 30.9524 
15.1626 3.08033 30.9502 15.0495 1.85473 30.6402 14.9756 1.06956 30.5755 
14.9134 0.149697 30.1704 14.8907 -0.458155 30.1618 14.9784 7.07362 30.297 
14.7629 7.16233 29.7896 14.9972 5.03268 30.5396 14.5369 5.14118 29.2282 
14.7607 5.54393 29.8743 14.904 2.76823 30.2822 14.3328 3.09031 28.5454 
14.6641 3.62713 29.5839 14.8066 0.996565 29.8386 14.1308 1.40952 27.8306 
14.7209 -2.17971 28.8641 14.7427 -0.61006 29.3463 13.7165 -1.35828 26.384 
13.9215 -0.0338465 27.1155 11.3412 -12.5767 12.8048 13.1886 -4.85635 23.7668 
13.3681 -3.83178 24.6837 14.5651 1.78679 29.0585 13.6462 -2.48459 25.7523 
11.999 -13.6986 12.9116 10.7283 -11.3399 12.8975 14.483 -5.86965 27.1422 
14.6503 -4.8293 27.9391 14.6803 -3.63541 28.3021 13.697 -9.21528 23.1773 
13.2726 -10.9589 20.909 11.583 -4.41772 20.5936 12.8628 -5.71968 22.7472 
11.1443 -6.19267 18.4394 12.2487 -2.5634 23.0267 12.2615 -13.7422 14.0429 
10.5843 -10.6422 13.9819 14.3388 -6.85009 26.2936 13.9034 -8.42595 24.1118 
12.2692 -7.536 20.4515 11.8961 -8.28282 18.9542 14.2136 -7.53695 25.5482 
12.9091 -3.7543 23.7538 12.4516 -6.53329 21.595 13.5015 -9.95032 22.2186 
12.8116 -12.6296 18.0484 14.4583 0.200732 28.4865 12.314 -5.66735 21.6593 
11.9001 -7.56232 19.4389 11.4647 -12.4876 13.6922 12.3942 -13.4841 15.2525 
10.715 -10.2491 15.1731 13.0707 -11.8204 19.5677 11.513 -9.01478 17.5648 
12.581 -13.2365 16.6599 11.107 -9.70779 16.4133 13.772 -5.00397 25.0681 
14.3575 -1.21426 27.9675 11.4488 -12.0745 14.8984 12.8246 -5.00347 22.9569 
13.6262 -6.0894 24.3885 11.5807 -8.41842 18.1786 12.3033 -6.89138 20.962 
13.2442 -7.02964 23.1296 12.6809 -8.91427 20.6801 14.1354 -4.69865 26.1448 
12.3431 -9.9046 19.1814 12.9745 -8.31024 21.8745 14.3404 -4.15762 26.9738 
14.2021 -3.39477 26.8815 13.1653 -12.7165 18.8016 12.4856 -11.1461 18.6973 
13.3733 -11.8156 20.3796 12.7843 -10.4988 20.1036 12.7875 -13.8711 15.8541 
12.0256 -12.5049 16.1406 11.7917 -11.3906 16.9545 12.9512 -13.4756 17.2784 
12.3057 -12.1815 17.457 11.929 -10.5903 17.7082 10.6422 -9.45005 15.572 
11.2378 -10.7857 16.1091 11.1542 -9.01402 16.844 13.1731 -7.81387 22.6361 
13.9545 -7.65948 24.5812 13.7377 -6.77064 24.3127 12.0381 -9.88157 18.3403 
13.9932 -5.91793 25.4566 13.2394 -10.1505 21.3885 12.966 -8.96806 21.455 
13.7306 -3.53286 25.5474 14.2824 -2.53163 27.3789 11.4919 -11.7603 15.7023 
12.5168 -9.30609 20.0833 14.132 -14.5235 18.7315 13.804 -13.956 18.7028 
14.0519 -14.5938 18.214 11.6463 -4.80145 20.5865 12.0155 -5.47339 21.1137 
11.9024 -5.00013 21.0567 13.7321 -14.2254 17.9454 14.1066 -14.8921 17.7471 
14.08 -15.039 17.237 14.4562 -15.4767 17.4374 14.1375 -14.2694 19.2946 
14.4753 -15.0844 18.6772 11.757 -4.45823 20.9357 11.665 -3.97781 20.9021 
11.4401 -3.88895 20.4445 13.9146 -12.9377 20.564 14.1486 -13.6879 20.3266 
14.1441 -13.302 20.9184 14.3468 -13.6227 21.2602 14.1656 -12.9538 21.3911 
13.331 -13.4561 18.1551 13.2642 -13.603 17.8205 14.153 -14.0151 19.7783 
13.8269 -13.4287 19.6634 13.5091 -12.6031 19.8294 13.4447 -12.7895 19.486 
14.3992 -14.4351 20.0058 11.221 -6.95964 18.1473 11.5137 -7.6625 18.3955 
11.6003 -7.54807 18.6666 13.4387 -13.3862 18.5548 13.0093 -12.6743 18.4465 
13.8078 -15.5022 14.3818 13.6789 -15.5658 13.9115 14.1102 -16.0144 13.9269 
11.209 -6.52976 18.3836 10.9006 -5.89338 18.0563 10.9796 -6.32296 17.9892 
11.7514 -13.1163 13.3518 11.4005 -12.5463 13.1966 11.6252 -13.0586 12.8803 
13.52 -15.6286 13.4181 13.2182 -15.0477 13.8942 13.4058 -14.9415 14.7588 
13.8982 -15.4475 14.8235 13.3417 -15.6299 12.9846 13.6777 -16.1274 12.8669 
14.0452 -15.2519 16.184 14.4606 -15.7053 16.2497 14.0638 -15.1668 16.6809 
13.6772 -14.5699 17.0725 12.878 -13.1153 17.6426 13.2834 -13.8877 17.4095 
13.9629 -15.372 15.3143 13.9037 -15.1812 15.8115 13.5471 -14.8693 15.5735 
13.5688 -14.6964 16.2481 10.6627 -9.78308 15.3976 10.4088 -9.06324 15.1293 
10.3884 -9.33577 14.8689 13.1223 -14.284 15.9099 13.0954 -14.3736 15.5017 
14.3606 -15.8358 15.064 12.3514 -5.11612 21.924 12.4358 -4.94364 22.1822 
12.016 -4.41209 21.5061 12.4189 -13.2678 15.9971 12.6796 -13.5879 16.2174 
12.2675 -12.8178 16.4208 13.3157 -11.3914 20.6716 13.6387 -12.1762 20.6932 
13.6316 -11.8157 21.0361 13.6563 -7.3641 23.9107 13.8103 -7.17489 24.3461 
13.4773 -6.83365 23.6708 14.3726 -11.893 23.2797 14.2565 -11.2576 23.3366 
14.2364 -11.6154 22.9688 14.2502 -9.59886 24.4452 14.1791 -9.00269 24.5755 
14.0554 -9.15275 24.1202 14.28 -10.8785 23.7212 14.1198 -10.5573 23.3928 
14.1939 -12.2962 22.2051 14.3783 -12.7603 22.3472 14.2118 -11.9351 22.623 
14.3047 -10.5572 24.0545 14.3953 -11.0849 24.0812 12.3979 -6.72375 21.3175 
12.0671 -6.07178 20.8859 11.9843 -6.21995 20.56 14.4143 -9.6925 25.0609 
14.3722 -9.98482 24.6875 14.4581 -10.3102 24.9254 14.8127 -3.2446 28.9785 
14.8131 -2.69954 29.1488 14.7003 -2.92704 28.5316 14.3056 -10.1944 24.2942 
14.449 -9.43385 25.4166 14.326 -9.1745 25.0184 14.5431 -9.61456 25.8355 
14.4946 -9.14303 25.8373 13.9784 -9.47986 23.7378 13.9946 -9.90081 23.5017 
14.1701 -10.0818 23.9034 14.8299 -3.63206 29.0409 14.7987 -4.08916 28.7681 
14.8757 -3.93144 29.3182 14.4195 -4.86438 27.0154 14.49 -4.45258 27.3758 
14.254 -4.42529 26.5907 14.1486 -8.62139 24.7508 13.327 -8.75047 22.5285 
13.2518 -9.11135 22.1318 13.5681 -9.5753 22.6447 14.0472 -11.2213 22.6842 
13.6325 -11.5003 21.2842 13.957 -12.3116 21.3568 13.7501 -10.698 22.3066 
13.8195 -10.4585 22.6605 13.876 -10.0728 23.0785 14.149 -12.5248 21.7356 
13.963 -11.7608 21.9588 11.733 -5.36486 20.4751 12.0766 -5.85662 21.0737 
12.7634 -6.35144 22.3512 12.419 -6.1655 21.6996 12.8407 -6.839 22.3355 
11.3594 -4.15786 20.1838 11.4615 -4.67969 20.1917 11.3885 -4.78013 19.9001 
11.6041 -5.78418 19.8916 11.3243 -5.04665 19.6003 11.2462 -5.37207 19.2727 
14.2306 -8.05706 25.3709 14.319 -7.93682 25.8177 14.0811 -7.55511 25.0489 
11.8989 -6.78121 19.9982 11.5287 -6.29387 19.3525 11.8406 -6.91847 19.7073 
13.7799 -8.76936 23.6163 12.7475 -7.37979 21.8054 12.6552 -7.58714 21.4475 
13.0666 -8.04835 22.2456 14.5518 -8.82218 26.3282 14.3939 -8.63005 25.699 
13.4003 -10.1051 21.8454 13.6549 -10.8453 21.9485 11.6891 -3.65373 21.0804 
12.758 -15.2371 12.0452 12.3754 -14.5694 12.2638 12.513 -14.9057 11.8487 
12.3026 -2.91285 22.9282 12.6498 -3.58469 23.2987 12.5202 -3.0934 23.3249 
11.9605 -13.8887 12.0693 11.9043 -13.8502 11.6484 12.2334 -14.444 11.7179 
12.5658 -15.129 11.4231 13.0031 -15.4541 12.3328 13.1565 -15.9074 11.9483 
12.3978 -2.60589 23.3434 12.3454 -2.19211 23.4294 12.1545 -2.12348 23.0186 
12.0706 -13.9975 12.4468 11.7932 -13.481 12.4653 13.1235 -15.4378 12.7226 
[...]
POINT_DATA 853
VECTORS velocity double
0.991183 -2.62725 -0.123745 1.16647 -2.85143 -0.0560221 1.24825 -2.88261 0.13712 
1.26483 -2.77171 0.39419 1.22889 -2.5619 0.670525 1.14147 -2.29641 0.834587 
0.992474 -1.96249 0.761016 0.770607 -1.51308 0.538935 0.508146 -1.02754 0.451475 
0.243744 -0.620317 0.590829 -0.0162869 -0.319956 0.856838 -0.227779 -0.165754 1.11784 
-0.357375 -0.140388 1.26648 -0.361797 -0.223669 1.18208 -0.207462 -0.388084 0.81967 
0.110139 -0.507147 0.351694 0.549084 -0.439751 0.122072 1.06944 -0.237101 0.152904 
1.63708 -0.0177604 0.292447 2.1981 0.0800918 0.383781 2.63778 -0.00929568 0.357499 
2.79478 -0.211309 0.256706 2.50509 -0.303373 0.21593 1.5604 -0.0468667 0.36156 
-0.0668114 0.721189 0.637709 -1.46217 1.50139 0.539186 -2.37712 1.76046 0.10937 
-2.89224 1.66884 -0.141322 -3.01076 1.4517 -0.162509 -2.94159 1.34414 -0.238349 
-2.91036 1.50635 -0.51698 -2.74236 1.79044 -0.808163 -2.32853 1.97662 -0.963853 
-1.80107 2.06079 -1.04639 -1.29952 2.11625 -1.15593 -0.893815 2.22705 -1.36606 
-0.505199 2.31002 -1.592 -0.0926916 2.25824 -1.76821 0.321654 1.85931 -1.82527 
0.661384 1.1699 -1.84248 0.863276 0.467406 -1.85266 0.949591 -0.155551 -1.81424 
0.951626 -0.627493 -1.71493 0.915656 -0.964457 -1.58153 0.88749 -1.27386 -1.44429 
0.838497 -1.49488 -1.30815 0.776406 -1.65059 -1.18286 0.690766 -1.72994 -1.02081 
0.540326 -1.56298 -0.780442 0.319524 -0.783541 -0.524843 0.0270128 1.05801 -0.325029 
-0.284489 3.3209 0.19196 -0.393473 4.09003 1.06867 -0.334392 2.77288 1.31685 
-0.250428 -0.0670864 0.863978 -0.278299 -1.63368 0.889847 -0.0969272 -1.89478 0.694729 
0.186483 -1.93594 0.371662 0.477741 -2.06671 0.103362 0.74538 -2.31023 -0.0602729 
1.03901 -2.76604 -0.280625 1.15471 -2.91854 -0.264726 1.32832 -3.15891 -0.324096 
1.33946 -3.1127 -0.185825 1.3708 -3.04346 -0.101391 1.33018 -2.86603 0.0973745 
1.29098 -2.66157 0.0762013 1.21067 -2.44015 0.269124 1.09184 -2.09538 0.186363 
0.960225 -1.78512 0.198513 0.817851 -1.39723 0.0263304 0.659706 -1.05541 0.059063 
0.427622 -0.597 0.202054 0.233775 -0.317221 0.420172 0.0342867 0.0225756 0.6317 
-0.129691 0.141009 0.865873 -0.32204 0.350473 1.10146 -0.442392 0.445735 1.23712 
-0.503937 0.489188 1.25184 -0.46518 0.334829 1.15875 -0.321305 0.164955 0.874067 
-0.14311 0.0461171 0.64126 0.134749 -0.0272501 0.46171 0.424626 -0.0747487 0.388971 
0.826536 -0.0229737 0.446882 1.05238 0.0444729 0.557616 1.47871 0.0859066 0.621464 
1.7554 0.0968503 0.674204 2.1053 0.0272145 0.608955 1.96327 0.00738361 0.627196 
1.9478 -0.054088 0.536381 1.43927 0.0634563 0.596725 0.505594 0.419706 0.774903 
-0.386694 0.856372 0.910891 -1.0931 1.24286 0.860415 -1.66203 1.47293 0.707161 
-2.00921 1.45017 0.630689 -2.19082 1.36572 0.559736 -2.18479 1.18923 0.580289 
-2.13725 1.06942 0.530883 -1.97839 1.00673 0.430141 -1.75975 1.00581 0.361395 
-1.52111 1.07241 0.222499 -1.35783 1.14734 0.10231 -1.07938 1.25862 -0.0716865 
-0.81928 1.25874 -0.063238 -0.49709 1.26863 -0.262332 -0.315796 1.23496 -0.413076 
-0.0123992 1.11084 -0.691675 0.198208 0.95994 -0.854072 0.55477 0.635481 -1.20663 
0.74475 0.429328 -1.42858 1.03212 -0.0546593 -1.71436 1.19326 -0.406565 -1.8808 
1.34859 -0.903515 -2.05363 1.39351 -1.20368 -2.09264 1.37122 -1.51091 -2.01573 
1.30934 -1.65286 -1.8923 1.18012 -1.61454 -1.70394 1.11721 -1.74527 -1.55902 
1.00396 -1.77011 -1.37277 0.961191 -1.90933 -1.23396 0.857428 -1.89778 -1.10497 
0.763073 -1.95014 -0.943227 0.617144 -1.89472 -0.751825 0.461742 -1.74421 -0.520479 
0.289911 -1.21215 -0.341008 0.153341 -0.492997 -0.226311 -0.0441687 0.98236 -0.076782 
-0.148907 1.51187 0.180235 -0.246648 2.18195 0.501012 -0.243249 1.66839 0.708485 
-0.199054 -0.12186 0.674657 -0.237475 -1.24087 0.782818 -0.17017 -1.89051 0.762155 
-0.0776246 -1.98551 0.670638 0.182454 -2.0483 0.368548 0.356349 -2.07864 0.193695 
0.642367 -2.29436 -0.0679919 0.775311 -2.41324 -0.139099 -0.0935015 -0.299979 0.361158 
0.00408451 -0.26621 0.0899804 -0.121582 -1.65957 0.612941 0.205562 -1.62655 -0.0386256 
0.0244021 -1.44177 0.277344 0.126707 -2.14478 0.398757 0.543014 -2.14013 -0.419132 
0.214648 -2.1228 0.161162 0.550627 -2.29409 -0.0557415 0.883061 -2.26552 -0.848851 
1.37341 -3.28272 -0.676823 0.999134 -2.74385 -0.428704 1.48979 -2.70524 -1.73527 
1.19141 -2.48003 -1.26041 -0.159754 0.668332 1.12312 1.43336 -1.34478 -1.86077 
1.70656 -2.17395 -2.25396 0.59646 -2.32045 -0.267247 1.69803 -2.76375 -2.12167 
0.829943 0.277539 0.936694 -1.0302 1.08071 1.14357 1.3442 -2.43425 -0.804722 
1.48843 -3.03791 -0.7389 1.55189 -3.40144 -0.831302 -0.0278908 0.528934 0.572107 
-0.5839 1.13408 1.24162 0.15889 1.26883 -1.22445 0.958101 -0.343795 -1.14903 
-0.921668 1.46466 -0.468164 1.09158 -0.0898558 -1.9117 0.798635 0.249111 1.08043 
-1.21096 0.960372 1.31009 1.08818 -1.68474 -0.691878 0.373013 -0.0843208 0.0263559 
-0.159775 1.14106 0.294299 -0.548646 1.24006 0.630701 0.841197 -1.08192 -0.489695 
1.50432 -1.36225 -2.09344 0.378536 0.570194 -0.378376 -0.356408 0.952331 0.99691 
-0.249367 0.563142 0.918108 1.00611 -2.64734 -0.694172 0.587738 0.356889 -0.819647 
-0.403989 1.21179 0.329051 -0.180355 0.571021 1.34067 0.462686 0.266591 1.10701 
-1.06145 0.786417 1.35607 -0.529008 0.943174 1.11566 -0.790064 1.01533 0.88937 
0.134746 0.321718 0.936552 -0.917072 0.813584 1.16905 1.6059 -2.17714 -1.95235 
1.37887 -3.14545 -1.07819 -0.351396 0.536748 1.49986 1.17555 -0.670707 -1.53611 
1.22925 -1.25486 -1.39104 -0.709979 1.13177 0.657186 0.104284 0.891008 -0.0750181 
0.652805 -0.0493947 -0.553891 -0.392789 1.36663 0.846808 1.67704 -2.80143 -1.80028 
-0.596043 1.34483 1.10616 -0.0533965 0.983128 0.450324 1.69674 -3.23102 -1.54318 
1.75332 -3.37346 -1.71866 -0.313307 0.547243 0.876725 -0.552555 1.09531 1.16701 
-0.556057 0.880525 1.18457 -0.597896 1.3546 1.19469 0.605239 0.190737 0.873277 
-0.132723 0.455533 1.26697 -0.471512 0.735282 1.31562 0.134647 0.255541 0.737192 
-0.303534 0.65266 1.10714 -0.595957 0.979921 1.22474 -1.26374 0.826979 1.07806 
-0.681476 0.708194 1.43033 -0.978925 0.901888 0.898491 0.266597 0.518594 0.0257377 
0.69754 -0.581435 -0.456382 0.977808 -0.861486 -0.977058 -0.627433 1.17507 1.10617 
1.37417 -1.89584 -1.45051 -0.499495 1.21511 1.13172 -0.294638 1.22688 0.791294 
1.78885 -2.79262 -2.22343 1.65789 -3.44925 -1.47166 -0.42376 0.567808 1.47968 
-0.508831 1.42833 0.98423 0.173307 -0.295088 0.339007 0.0256906 -0.0394069 0.498791 
0.317286 -0.243133 0.296319 0.167955 1.11746 -1.05114 0.394054 0.667531 -0.792583 
0.405218 0.750515 -0.996495 0.269974 -0.0662027 0.41045 0.53813 -0.263842 0.229666 
0.754436 -0.210036 0.237937 0.799288 -0.348044 0.114564 0.00107982 -0.267199 0.47544 
0.319159 -0.498972 0.195927 0.352403 0.986291 -1.21427 0.31256 1.23273 -1.40486 
0.0299842 1.68385 -1.46548 -0.405155 0.242472 1.02829 -0.251635 -0.135068 0.821804 
-0.353624 -0.0400275 1.02413 -0.306178 -0.299994 1.03523 -0.408253 0.0330524 1.15548 
-0.0257718 0.229082 0.650372 0.0819915 0.189127 0.623884 -0.127535 -0.21701 0.627534 
-0.245924 0.116596 0.762289 -0.427572 0.547409 0.991119 -0.365949 0.485001 0.907448 
-0.0674117 -0.46504 0.573893 -0.921373 1.25773 -0.0596663 -0.709906 1.16939 0.328572 
-0.627175 1.18997 0.290005 -0.110723 0.24004 0.66911 -0.283832 0.56084 0.886118 
2.07339 0.0782796 0.509795 2.25882 0.0535874 0.507598 2.44275 0.0580788 0.384435 
-0.882832 1.35495 -0.277864 -1.26185 1.68767 -0.709175 -1.1779 1.48423 -0.451826 
0.301136 0.428256 1.16125 -0.162831 0.622983 1.22945 0.24679 0.486247 1.0692 
2.42032 -0.00258017 0.478153 1.92525 0.0726501 0.662027 1.61169 0.0985879 0.657684 
1.88208 0.0742374 0.490205 2.49963 -0.0694522 0.440532 2.76055 -0.106797 0.311718 
1.23867 -0.0613168 0.343576 1.35025 -0.121487 0.218304 1.00645 -0.134385 0.283383 
0.637852 -0.0633481 0.395773 -0.0537656 0.376725 0.808207 0.27114 0.111749 0.573392 
1.6502 0.0436353 0.451222 1.36155 0.00126571 0.428671 1.29165 0.0593744 0.570516 
0.964977 0.0133378 0.501773 -1.18487 0.809452 1.2068 -1.62625 0.913485 0.860658 
-1.59313 0.925852 0.963452 0.840381 0.115384 0.712487 1.00821 0.12512 0.75522 
1.92472 0.0533403 0.352696 0.777817 0.132688 -1.13658 0.902027 -0.0635763 -1.28402 
0.640609 0.543488 -1.30162 0.238019 0.303556 1.05985 0.374878 0.238943 0.903504 
-0.0188358 0.408793 1.12302 -0.584006 1.02186 1.23627 -0.519023 0.641014 1.17206 
-0.547594 0.743931 1.23605 0.696101 -0.348981 -0.547581 0.835747 -0.677009 -0.730829 
0.84241 -0.460712 -0.819047 -0.304838 -0.138765 1.21297 -0.282041 0.0796112 1.12014 
-0.353976 0.113808 1.20781 0.138262 -0.144711 0.514177 0.2938 -0.23058 0.254038 
0.175039 0.0204216 0.373669 -0.185003 0.0131957 0.996474 -0.217588 0.26395 0.967836 
-0.430776 0.117738 1.26896 -0.378113 -0.170262 1.26025 -0.401178 0.126238 1.25723 
-0.0873406 -0.0717815 0.872652 -0.131642 -0.223563 0.996483 0.247208 0.731488 -0.221079 
0.228195 0.790964 -0.47221 0.0866987 0.923675 -0.361521 0.232435 -0.456174 0.505741 
0.11532 -0.295694 0.628588 0.113456 -0.456811 0.71338 1.42888 -3.30208 -0.507123 
1.36547 -3.25036 -0.497424 1.50346 -3.42713 -0.800232 0.00742895 -0.124471 0.737102 
0.33923 -0.618697 0.410569 0.327389 -0.437544 0.305644 0.375784 -0.811577 0.498504 
0.458245 -0.817669 0.328974 0.02551 0.233819 0.570729 -0.103755 0.330145 0.762687 
-0.0530162 0.0950394 0.75562 1.4218 -3.24368 -0.395951 1.45374 -3.2169 -0.440032 
1.36868 -3.11184 -0.170598 1.58139 -2.9472 -1.30419 1.61275 -3.17632 -1.22192 
1.6955 -3.04998 -1.68108 0.42226 -0.37353 0.0623289 -0.0415497 0.802555 0.511957 
-0.210396 1.01337 0.739062 -0.213676 0.795187 0.812382 -0.3921 0.398925 1.18642 
-0.552845 0.819521 1.25664 -0.488012 0.39183 1.21886 -0.425462 0.749929 1.14875 
-0.344888 0.653865 1.05683 -0.216419 0.526799 0.890813 -0.445999 0.159565 1.2328 
-0.485459 0.47093 1.2648 0.111733 1.02369 -0.779493 0.329863 0.695151 -0.605451 
0.662685 0.123585 -0.68833 0.500561 0.427731 -0.589772 0.510621 0.311376 -0.420892 
-0.112571 1.72633 -1.37346 -0.0604593 1.42633 -1.11871 -0.223336 1.55266 -1.08986 
-0.175408 1.19651 -0.564121 -0.383803 1.58516 -0.980482 -0.555338 1.58288 -0.84248 
0.665586 -0.812325 -0.22151 0.743733 -1.0421 -0.225878 0.789924 -0.852881 -0.525049 
-0.174639 1.10428 -0.0507965 -0.417743 1.2553 -0.317819 -0.281519 1.15407 0.0213355 
0.177967 0.250542 0.284969 0.203124 0.739648 0.00770886 0.0566865 0.929235 0.187914 
0.102934 0.769262 0.244186 0.58511 -1.05213 0.283802 0.550197 -0.816731 0.0968026 
-0.435929 1.0757 1.0822 -0.485637 0.851915 1.20325 0.385051 1.25574 -1.5238 
2.26543 -0.175091 0.375743 1.67295 0.00444378 0.580526 1.97688 -0.126079 0.405257 
1.13077 -0.20071 -1.90014 1.35482 -0.884224 -1.97521 1.30321 -0.713718 -1.99348 
1.01446 0.211607 0.685817 0.968596 0.215108 0.576212 1.5454 -0.00173802 0.473149 
2.13335 -0.232622 0.260979 2.43848 -0.163485 0.381406 2.71563 -0.287785 0.217729 
1.21276 -0.467485 -1.97363 1.13817 -0.303918 -1.94958 0.978047 0.215843 -1.88809 
1.1202 0.183776 0.759973 0.626873 0.359665 0.877923 2.40705 -0.0963865 0.450345 
2.00398 -0.0335379 0.569634 0.320586 0.511823 0.687513 0.789264 0.27909 0.508397 
-0.300779 0.776673 1.02447 0.0137515 0.652949 0.848619 0.146848 0.562138 0.962592 
1.45609 0.0907761 0.717986 2.04658 0.0135561 0.621496 -0.25886 0.81257 0.788519 
-0.742998 1.053 0.907521 -0.742763 1.08787 0.784378 -0.837249 1.16706 0.658804 
-1.24163 1.3563 0.722477 -1.99231 1.62107 0.451274 -1.96937 1.69147 0.327743 
-1.64508 1.53132 0.596503 -1.38022 1.36734 0.813838 -0.53793 0.838405 1.18366 
-0.723638 0.993188 1.04496 0.875106 -2.56486 -0.24946 1.04752 -2.80323 -0.37203 
0.905699 -2.581 -0.220577 0.811259 0.267271 1.03474 1.4309 0.114934 0.791532 
1.42518 0.127873 0.841107 -1.09277 1.19207 0.977144 -1.42307 1.31843 0.915792 
-2.68742 1.74421 -0.0560941 -2.27527 1.63139 0.322359 -2.47879 1.59215 0.228849 
-2.12715 1.40498 0.587958 -2.50206 1.48862 0.275894 -2.19559 1.29268 0.575325 
-2.64393 1.43175 0.186303 0.801444 -2.44704 -0.486802 0.764161 -2.34132 -0.560963 
0.95279 -2.47568 -0.775256 -2.99252 1.5616 -0.163414 -2.6716 1.33933 0.17174 
-1.83692 1.47901 0.677255 -1.617 1.22009 0.992428 -1.52387 1.2777 0.971666 
-1.12253 1.0229 1.26236 1.21897 -3.05776 -0.594625 1.18631 -3.00581 -0.438051 
-0.626344 0.80857 1.32092 1.50489 -2.17209 -2.02795 1.62044 -2.78247 -1.96154 
1.43721 -2.21203 -1.8908 -1.41701 1.5496 -0.522908 -0.848304 1.13911 0.315832 
-0.622378 1.19396 0.649352 -2.08956 2.04845 -1.0269 -1.62786 1.5258 -0.488945 
-1.81 1.44639 -0.393374 -1.24739 1.21813 -0.013536 -1.10486 1.71473 -0.771404 
-0.705474 1.37149 -0.376917 -0.775324 1.52121 -0.615681 -1.46817 1.11247 0.150753 
-1.07611 0.985387 0.585463 -0.992432 1.02466 0.545148 -0.703832 1.57093 -0.729997 
-1.08543 2.16277 -1.24985 -0.704245 2.28403 -1.48448 -0.10738 -1.09552 0.492382 
-0.172844 -0.999243 0.628874 -0.150751 -0.348658 0.530443 0.0772727 -0.420248 -0.0626424 
-0.0142866 0.410498 -0.0114836 0.0528026 0.225583 -0.157526 0.359078 -1.76876 -0.297003 
0.263098 -1.38852 -0.231481 0.356026 -1.48118 -0.39944 -0.309889 2.32194 -1.69461 
-1.53876 2.08064 -1.08609 -0.406324 1.25295 0.97791 -0.347098 1.31059 0.828254 
-0.451787 1.35919 0.99615 0.234331 -0.959546 -0.28938 0.1665 -1.04758 -0.118147 
-2.53892 1.18288 0.0594803 -2.60432 1.20555 0.127501 -2.0928 1.03312 0.466863 
-1.59645 0.966985 1.01911 -1.65338 1.06076 1.01407 -1.12291 0.842625 1.37291 
0.572606 -2.25679 -0.336783 0.395162 -2.24013 -0.039271 0.38193 -2.16489 -0.111049 
-2.65526 1.26492 0.157202 -2.9809 1.3695 -0.17729 -2.92034 1.39134 -0.355644 
-2.46536 1.19717 -0.0228156 -2.16163 1.11784 0.566694 -2.00812 1.27933 -0.176609 
-1.99243 1.39642 -0.336505 -2.5385 1.88244 -0.883947 -1.69162 1.05676 0.23709 
-2.25179 1.27629 -0.179849 -2.87111 1.65843 -0.685068 -2.36538 1.22352 -0.0893547 
-0.0388604 -1.02347 0.32949 -0.0348824 -1.57906 0.427472 -1.84789 0.992657 0.418113 
0.0857356 -1.85262 0.271323 0.099101 -1.55747 0.155173 0.215798 -1.96335 0.0685325 
-0.700626 0.87567 1.23578 -0.754084 0.930716 1.11985 -0.936133 0.860299 1.0439 
0.819915 -1.94021 -1.0273 0.877122 -2.06277 -1.00987 0.801968 -2.10023 -0.869258 
0.0188043 -0.968562 0.190367 0.087866 -1.04115 0.0522714 -1.09751 0.805186 1.12762 
-1.38241 0.865565 0.844682 -1.5538 0.891582 0.811855 -0.420739 1.19721 0.00823323 
-0.280916 1.19556 0.327051 0.963298 -2.12483 -1.09455 0.907018 -1.90262 -1.16335 
0.118961 2.11348 -1.81211 0.539605 1.08976 -1.61733 -0.591668 1.20706 0.134013 
-0.609629 1.24953 -0.0904714 0.790509 -1.44868 0.270092 0.741107 -1.24418 0.0643094 
0.696441 -1.27496 0.29095 0.639086 -1.26191 0.463268 1.17596 -1.4835 -1.1488 
1.10925 -1.07661 -1.18782 1.05193 -1.26981 -0.952751 0.879793 -1.66803 0.392756 
0.892894 -1.59874 0.0956313 0.968035 -1.86725 0.472566 0.892032 -1.75566 0.65501 
1.30193 -0.991225 -1.68629 1.27433 -0.765764 -1.78514 1.14291 -0.467043 -1.63361 
1.1104 -2.20251 0.552686 1.04048 -2.03348 0.523958 1.07561 -2.14136 0.826022 
1.31502 -2.61545 -0.279606 1.24269 -2.43699 -0.122631 1.25105 -2.54788 0.174535 
1.19123 -2.43299 0.781986 1.21936 -2.50378 0.506826 1.17317 -2.36824 0.551902 
1.16469 -2.29456 0.207981 1.0238 -1.92474 0.172561 1.38843 -2.95309 -0.215711 
1.37142 -2.81666 -0.304066 1.31703 -2.77869 0.0921871 1.21868 -2.06785 -0.73187 
1.09659 -1.96578 -0.256468 1.18675 -2.22008 -0.257847 0.969969 0.254218 -1.83699 
0.851122 0.548111 -1.78264 1.13579 -0.27766 -1.81537 1.00828 -0.213354 -1.45794 
0.882861 0.230706 -1.57777 -0.042407 -0.282105 0.217574 0.711507 0.822235 -1.70639 
0.506374 1.52949 -1.83189 0.909792 0.446134 -1.86055 1.55274 -1.55511 -2.1829 
1.44762 -1.17534 -2.09676 1.6247 -1.80472 -2.19542 1.25848 -2.62241 0.374355 
1.6164 -1.84069 -2.23706 1.36912 -1.02449 -2.07566 1.68913 -2.24244 -2.15295 
1.61194 -1.8571 -2.11331 1.43609 -3.09722 -0.380371 1.53779 -3.24867 -0.800972 
0.77336 0.830311 -1.85086 1.27934 -2.72387 0.360183 1.43816 -2.77349 -0.811111 
1.00188 -1.76422 -0.145446 1.12809 -0.371551 -1.9431 1.29801 -2.8236 0.264919 
1.25329 -2.67782 0.532757 0.927539 -1.51363 -0.263797 1.31079 -2.96931 0.0616033 
1.30938 -2.90282 0.163696 1.26411 -2.84277 0.259442 1.56389 0.111147 0.805972 
1.34014 -3.14728 -0.263027 1.29272 -3.00235 -0.0276659 1.26421 -3.00268 -0.100184 
1.21518 -2.88452 0.0324388 1.35535 -2.95808 -0.0143355 1.15957 -2.89207 -0.177844 
1.24907 -3.05688 -0.298084 1.24881 -3.01508 -0.181437 1.07436 -2.77553 -0.187105 
0.999321 -2.67451 -0.188924 1.11381 -2.86988 -0.288132 1.09078 -2.76232 -0.109201 
1.40611 -1.41079 -2.08082 1.6581 -2.10381 -2.26035 1.64716 -2.24208 -2.22297 
0.874579 -2.47001 -0.106965 0.8963 -2.53576 -0.163303 1.76603 -3.11342 -1.90915 
1.7637 -2.85622 -2.06166 1.79079 -3.16018 -2.00277 1.77479 -3.18886 -1.99234 
1.75928 -2.80188 -2.20194 1.24277 -3.079 -0.407562 0.759351 -2.36406 -0.0988507 
0.609985 -2.16906 0.0127888 0.638878 -2.23862 -0.0277349 0.782228 -2.46478 -0.20795 
0.71483 -2.35704 -0.11183 0.560282 -2.18353 0.0204782 0.494766 -2.1675 0.0609205 
0.40754 -2.06517 0.153 0.795345 -2.49902 -0.283202 0.613271 -2.30296 -0.0724748 
0.167656 -1.98433 0.390815 0.282837 -2.06621 0.263822 0.275125 -2.00637 0.279355 
0.335569 -1.98773 0.2237 -0.0905309 -1.94394 0.688318 0.0413573 -2.0244 0.53001 
0.0434919 -1.96854 0.530067 0.0398354 -1.91176 0.533652 -0.210603 -1.83787 0.828056 
-0.188171 -1.88231 0.80012 0.348245 -2.20806 0.145689 0.328286 -2.14517 0.198611 
0.17241 -2.10823 0.368512 1.64493 -2.50537 -1.88906 1.5028 -2.36048 -1.52812 
1.53518 -2.66257 -1.38962 0.426193 -2.16584 0.109327 1.04264 -2.38396 -1.03662 
1.13624 -2.66525 -0.984487 0.582685 -2.33467 -0.162715 0.37096 -2.24685 0.0658151 
1.75864 -2.48821 -2.26609 0.247143 0.402066 1.25956 -0.0650112 -2.02532 0.637174 
0.00806963 -2.05797 0.562274 -0.129769 -1.95839 0.72671 0.914425 0.148601 -1.839 
1.14558 -0.581646 -1.93247 1.15094 -0.805647 -1.89717 0.028896 -1.98149 0.427447 
1.13493 -0.967172 -1.84401 0.9648 -0.42276 -1.77504 1.14577 -1.17365 -1.80508 
1.32003 -1.53279 -1.94298 0.357468 -2.00177 -0.180939 0.484587 -1.96413 -0.44704 
1.07704 -1.16916 -1.71522 1.244 -1.63761 -1.79488 1.21576 -3.01432 -0.739363 
1.39804 -3.27908 -0.905225 1.0157 -1.35116 -1.5738 1.0471 -1.27401 -1.6418 
1.16687 -1.72067 -1.6443 1.04953 -2.14396 -1.2261 1.01535 -2.73644 -0.568374 
1.19703 -2.89201 -0.883693 0.926491 -0.785387 -1.64617 1.57532 -2.19506 -2.13239 
1.06132 -1.78377 -1.45303 0.950624 -1.53292 -1.4138 0.982976 -1.43672 -1.49724 
0.903697 -1.13011 -1.51387 0.905243 -1.71212 -1.27198 0.92008 -1.61094 -1.34025 
0.986883 -1.84865 -1.30612 0.717205 -2.21654 -0.625652 0.867304 -1.39766 -1.37547 
0.85663 -1.72238 -1.21271 0.695456 -2.08084 -0.726499 0.597929 -2.0086 -0.628102 
0.685624 -1.94482 -0.832766 0.778108 -1.80746 -1.07739 0.8179 -1.77216 -1.14437 
0.176287 -2.1708 0.284621 0.739804 -1.70902 -1.10976 0.727407 -1.83087 -0.994792 
0.660207 -1.82301 -0.88924 0.585186 -1.76386 -0.775764 0.625164 -1.69239 -0.91053 
1.35666 -2.65657 -1.48445 1.20208 -2.18759 -1.47575 1.29401 -2.21532 -1.62976 
0.806037 -1.5721 -1.24648 -0.0245084 -2.03686 0.556318 1.72434 -3.44075 -1.61561 
1.72284 -3.2177 -1.87923 -0.264518 -1.43474 0.84647 -0.224055 -1.65769 0.801705 
-0.227871 -1.78361 0.832975 -0.15281 -1.84965 0.716256 -0.21692 -0.792771 0.72399 
-0.200508 -1.42268 0.726106 -0.248658 -0.798385 0.800467 -0.230226 0.0626015 0.795623 
-0.279497 -1.08873 0.860308 -0.164815 0.582493 0.49313 -0.207229 0.788336 0.670538 
-0.247474 1.1681 0.883366 -0.295858 2.27393 0.98359 -0.3295 2.96433 0.935484 
-0.328666 3.17162 0.729726 -0.241913 1.88863 0.603459 -0.1571 0.954239 0.38532 
-0.382958 3.71202 1.33216 -0.363652 3.94527 0.637805 -0.289575 2.96537 0.436947 
-0.269616 1.36459 1.0656 1.34913 -0.921348 -1.90249 -0.106378 0.639511 0.247474 
-0.0702038 0.605245 0.124033 0.406712 -1.40756 -0.535132 0.309333 -1.07673 -0.422045 
1.32404 -2.08298 -1.74428 0.43718 -1.28759 -0.643798 0.504467 -1.64633 -0.659179 
0.225472 -0.552723 -0.375867 0.548848 -1.86193 -0.638402 -0.216298 2.38041 0.190208 
-0.150182 2.01252 -0.013718 -0.113387 1.3994 0.0543876 -0.197701 1.83705 0.320664 