# vtk DataFile Version 3.0
vtk output
ASCII
DATASET POLYDATA
POINTS 853 float
11.5668 -19.9326 1.14811 12.313 -20.6753 1.64467 12.9904 -21.1857 2.27943 
13.4111 -21.3475 3.08368 13.5466 -21.1787 3.96762 13.6752 -20.9525 4.99745 
13.7972 -20.6606 6.2059 13.8634 -20.3824 7.46941 14.1672 -20.3352 8.67636 
14.4142 -20.1334 9.8712 14.3865 -19.5777 11.1844 14.2208 -18.8309 12.6541 
13.8425 -18.0972 14.0261 13.3965 -17.3203 15.3388 13.0704 -16.0797 16.7542 
12.6896 -14.3335 18.2826 12.2531 -12.2361 20.0187 11.8284 -9.94847 21.7867 
11.4028 -7.27216 23.5573 11.1399 -4.34675 25.1905 11.2529 -1.6209 26.5547 
11.858 1.01398 27.6702 12.2959 3.33392 28.1414 11.912 4.97313 27.7482 
10.9737 5.9436 26.4865 10.0777 6.09442 24.8854 9.41967 5.24776 23.5977 
8.84656 3.53485 22.6172 8.32882 1.52538 21.6306 8.11989 -0.429662 20.5243 
8.24685 -2.41662 19.2134 8.3587 -4.46867 17.291 8.13481 -6.0652 14.9375 
7.66225 -7.0757 12.8959 7.18284 -7.66715 11.3828 6.82279 -8.11716 9.98291 
6.50598 -8.36238 8.53228 6.2658 -8.32621 7.32413 6.04995 -8.21366 6.31986 
5.85633 -8.2725 5.31302 5.9175 -8.8524 4.33691 6.18603 -9.78324 3.48801 
6.43794 -10.6 2.72521 6.59704 -11.2572 1.89494 6.8188 -11.94 1.20943 
7.15981 -12.6943 0.770394 7.40258 -13.3648 0.23009 7.44942 -13.7475 -0.321886 
7.40878 -13.9839 -0.732091 7.39249 -14.1615 -0.870693 7.44275 -14.4776 -0.883282 
7.54964 -14.9173 -0.828356 7.67259 -15.4472 -0.832148 7.86633 -15.9272 -0.797164 
8.15014 -16.2258 -0.613212 8.48771 -16.3302 -0.23075 8.8717 -16.5027 0.169037 
9.36488 -16.9581 0.541715 10.0037 -17.8173 0.770664 10.7871 -18.966 0.84181 
10.7172 -18.4411 1.3535 11.3393 -19.3023 1.39725 11.6309 -19.3941 1.97075 
12.2262 -20.0375 2.19475 12.5206 -20.0464 2.85425 12.8294 -20.2201 3.30573 
12.6314 -19.6611 4.05894 12.928 -19.8723 4.602 12.8195 -19.4065 5.56085 
13.0271 -19.4319 6.36941 12.7637 -18.9298 7.2468 13.038 -19.0677 7.97175 
13.3391 -19.0519 8.95685 13.7209 -19.1192 9.78716 13.3985 -18.392 10.6916 
13.6465 -18.2094 11.6979 13.2333 -17.3709 12.8694 12.8807 -16.8001 13.8519 
12.555 -16.1509 14.8245 12.5648 -15.7102 15.7293 12.2942 -14.3175 17.0108 
12.0226 -12.8188 18.2077 11.7118 -11.2011 19.5195 11.5572 -9.92843 20.6638 
11.245 -7.91477 22.114 10.9946 -6.15451 23.1822 10.806 -4.18364 24.3759 
10.8649 -2.19333 25.4203 11.1572 -0.259801 26.4372 11.5332 1.18053 26.9421 
11.9117 2.62436 27.4303 12.0096 3.80209 27.4254 11.5467 4.60689 26.8767 
11.0146 5.00748 26.0445 10.572 5.36572 25.1219 10.147 5.04736 24.2568 
9.83363 3.9094 23.6034 9.58885 2.89422 23.1134 9.34358 1.56749 22.4878 
9.00173 0.016763 21.8493 8.92799 -1.82215 20.8376 8.90369 -3.49955 19.6584 
9.05582 -5.22289 18.1725 8.84058 -6.29033 16.5175 8.54005 -7.55565 14.4073 
8.19899 -8.14178 13.1783 7.79658 -8.79529 11.6763 7.52344 -9.05634 10.8203 
7.20841 -9.49209 9.40438 6.97286 -9.60688 8.51908 6.75593 -9.59794 7.33865 
6.61872 -9.38043 6.82019 6.42287 -9.2822 5.88942 6.35516 -9.29173 5.32433 
6.4247 -9.7867 4.31723 6.71428 -10.4879 3.85204 6.93525 -11.2075 3.17304 
7.10008 -11.6591 2.7987 6.91037 -11.742 2.04811 7.16434 -12.2979 1.69222 
7.2966 -12.7896 1.16012 7.5512 -13.2568 1.0924 7.57877 -13.6571 0.515706 
7.69238 -14.0149 0.25997 7.62471 -14.2501 -0.262011 7.61487 -14.3245 -0.36246 
7.56252 -14.46 -0.577425 7.59436 -14.601 -0.603312 7.62923 -14.8209 -0.640113 
7.74634 -15.0404 -0.532009 7.78861 -15.2908 -0.576746 7.89226 -15.5468 -0.565645 
8.0835 -15.7331 -0.41486 8.25384 -15.8303 -0.265791 8.47526 -15.7695 0.163401 
8.65485 -15.8922 0.324276 8.96019 -16.0437 0.740929 9.2988 -16.5375 0.85445 
9.65542 -16.8734 1.23499 10.1544 -17.7315 1.11532 8.00044 -15.2438 -0.217321 
7.83165 -14.9774 -0.31969 8.23909 -15.3253 0.158991 7.84406 -14.721 -0.0757217 
8.05276 -14.9275 0.138043 8.52638 -15.2497 0.803922 7.922 -14.4468 0.430818 
8.19364 -14.7494 0.668089 8.92057 -15.5306 1.3626 7.94344 -14.0279 1.0952 
10.2432 -17.2759 1.93148 9.51578 -16.3185 1.66576 7.76412 -13.0977 2.23964 
7.83674 -13.5132 1.63916 11.179 3.67654 26.084 7.36176 -11.2469 5.59881 
7.49151 -11.7723 4.07734 8.36033 -14.5768 1.34644 7.99227 -13.0517 3.04922 
11.4817 2.69058 26.6842 10.5982 3.96294 24.9807 10.9674 -17.0915 4.66579 
11.2912 -17.9145 3.41663 10.7685 -17.6781 2.53696 12 -16.3963 10.9548 
11.6239 -14.3711 14.8274 6.63612 -9.06698 7.87684 7.67328 -11.6373 7.14198 
7.71353 -7.99391 12.2571 6.10096 -8.9801 4.81477 10.8635 0.267441 25.7866 
10.1673 2.02413 24.0686 11.0144 -16.928 6.11762 11.8626 -17.0916 9.1349 
8.79842 -10.9252 11.6036 9.16285 -9.42899 14.2347 11.518 -17.2531 7.41159 
6.8318 -10.3638 4.80718 7.98152 -11.5151 8.94532 11.684 -15.3031 12.6501 
11.0561 -9.32176 19.734 8.53522 -14.5814 1.84749 7.34708 -10.7655 7.92565 
8.66806 -9.71042 12.6947 10.8917 1.97739 25.5947 10.542 -2.31489 24.4941 
9.78911 -0.270761 23.123 11.3518 -12.3059 16.9376 9.61589 -6.97236 17.9979 
10.7027 -6.03185 22.264 9.62294 -3.70997 21.1073 8.35257 -13.0534 4.74992 
8.73569 -14.8056 2.06623 10.4296 -0.123366 24.5928 7.13543 -10.7561 6.38467 
8.5033 -13.3519 6.25532 9.3544 -8.24295 15.8847 8.33078 -11.1833 10.1879 
9.20446 -13.8939 8.2026 9.87509 -12.154 12.9463 9.2624 -14.7053 3.89102 
10.2299 -10.5387 15.9369 10.0612 -13.5304 11.0975 9.71014 -15.735 3.16698 
9.08161 -14.9949 2.79307 11.3885 -11.1724 18.4761 10.7107 -9.97573 17.9396 
11.786 -14.0473 15.9171 10.9827 -12.6773 15.332 10.6536 -4.47308 23.5715 
10.357 -3.63874 23.261 10.2658 -5.16459 21.6269 11.0533 -8.15534 21.1387 
10.6688 -7.27645 20.8469 10.2483 -7.23317 19.5629 9.45242 -1.53624 22.0371 
9.90085 -2.53375 22.642 9.49779 -5.2122 19.4949 9.82223 -14.1887 9.5689 
11.2746 -16.6545 8.08469 9.61581 -14.778 7.14905 10.0733 -8.80359 17.4483 
9.10324 -14.3307 5.42128 11.3163 -14.3167 13.6576 10.3437 -13.3518 12.2994 
8.17539 -13.1965 3.44196 9.00394 -15.0578 2.40672 10.1722 -1.74332 23.7414 
10.1639 -11.7872 14.1204 12.1808 -12.6435 19.0235 11.8791 -11.9904 18.9525 
11.9552 -11.6662 19.6984 6.78014 -9.2943 8.19573 7.13398 -10.143 8.25626 
6.89624 -9.7435 7.88432 11.6565 -10.6614 20.0459 11.8818 -10.9761 20.4158 
11.712 -9.9949 21.1679 12.0385 -11.0904 20.9281 12.3633 -13.5535 18.273 
12.4786 -13.3365 19.1143 6.67372 -9.29513 7.5847 6.51343 -8.9584 7.32285 
6.46878 -8.70219 7.66542 12.4551 -15.1042 16.3596 12.7011 -15.1959 16.9313 
12.8656 -15.9576 16.2266 13.2339 -16.7676 16.0425 12.9873 -16.5213 15.6099 
11.4179 -10.3679 19.6204 11.3371 -9.66837 20.2284 12.5302 -14.3796 17.613 
12.1478 -13.559 17.5842 11.8574 -13.3867 16.99 11.7477 -12.6587 17.5898 
12.8883 -15.2576 17.4978 8.3479 -7.92333 13.671 8.81521 -8.43564 14.2944 
8.6265 -8.72628 13.6125 11.5599 -11.1924 19.0041 11.2245 -10.3543 19.0081 
10.9562 -3.19164 25.3276 11.0396 -2.03214 25.9218 11.1437 -2.96403 25.9046 
7.93534 -8.04039 12.6942 7.63321 -7.5587 12.4648 7.93702 -7.59261 13.0688 
11.164 2.24335 26.1459 11.075 2.9299 25.8859 11.3337 3.23129 26.3736 
11.194 -0.853386 26.4965 10.9803 -1.10596 25.9665 10.7923 -3.18839 24.9002 
10.9562 -4.31426 24.7285 11.4385 0.223044 26.9849 11.4762 -0.309705 27.1391 
11.3409 -7.7377 22.7372 11.614 -8.70241 22.6489 11.5198 -8.86804 21.9754 
11.4166 -8.98279 21.3997 11.0751 -8.70862 20.5354 11.2757 -8.96649 20.9084 
11.0542 -5.54873 24.0443 11.1508 -6.58205 23.3387 10.9202 -5.33561 23.7538 
11.1058 -6.97046 22.7133 9.56982 -0.964784 22.5303 9.26011 -0.781698 21.9895 
9.40694 -0.0500031 22.4403 10.8101 -5.28293 23.3785 10.7145 -4.27479 23.9744 
11.2331 -5.77018 24.4154 7.08053 -10.3933 7.25434 7.02188 -10.3127 6.97324 
6.70589 -9.51544 7.12071 10.5199 -4.07317 23.4507 10.6691 -5.13356 23.0198 
10.5015 -4.79093 22.771 11.7353 -14.2846 15.3743 12.1429 -14.8406 15.8266 
12.1544 -15.1906 15.2771 10.2972 -15.4165 8.10338 10.3464 -15.5993 7.65439 
9.34463 -14.2545 7.64331 14.0465 -18.4567 13.3515 13.8156 -18.1441 12.8556 
13.6259 -17.8036 13.468 13.5578 -18.7712 10.2076 13.0418 -18.4019 9.47379 
12.7806 -17.8804 9.9856 13.9784 -18.5334 12.166 13.4386 -17.7812 12.203 
13.2341 -17.2069 14.555 13.6252 -17.7379 14.6802 13.4345 -17.522 13.9935 
14.0433 -18.8625 11.5249 14.3379 -19.2085 11.9344 8.17266 -11.4372 9.5246 
7.54156 -10.4282 9.19328 7.68821 -10.2404 9.79692 14.1154 -19.6374 9.85632 
14.1054 -19.4083 10.4063 14.4432 -19.91 10.4996 11.3017 -18.7056 2.21025 
11.0322 -18.4854 1.93802 10.4723 -17.4466 2.22905 13.9313 -18.985 10.9267 
14.0154 -19.7358 9.38398 13.5392 -19.0926 9.36553 14.3106 -20.2661 9.26795 
13.8706 -19.7883 8.86882 12.7956 -17.5565 10.7105 13.0345 -17.5072 11.4401 
13.5343 -18.2991 11.2017 11.74 -19.2042 2.36143 11.7638 -19.0071 2.70703 
12.3396 -20.001 2.49341 10.2607 -16.2922 3.70406 10.3505 -16.6364 3.24947 
9.54904 -15.3084 3.49812 12.6316 -18.1276 8.95275 10.9266 -14.9172 10.9949 
10.9295 -14.5219 11.821 11.7955 -15.7422 11.875 13.0552 -17.0703 13.4018 
12.1117 -15.3448 14.8092 12.606 -16.0643 15.2453 12.3362 -16.0693 13.2952 
12.4999 -16.4314 12.7521 12.6888 -16.8787 12.0157 12.9813 -16.7546 15.0438 
12.7076 -16.4722 14.3966 7.07104 -9.58179 8.88242 7.36195 -10.4002 8.70555 
8.07113 -12.1279 8.03357 7.69437 -11.2679 8.4021 8.52234 -12.68 8.59516 
6.55054 -8.70376 8.12159 6.7451 -8.98359 8.54791 6.8342 -8.86639 9.02579 
7.35917 -9.27733 10.1141 6.98138 -8.72848 9.693 7.13331 -8.50259 10.4371 
12.2373 -17.9477 8.06663 12.2352 -18.1021 7.71231 11.3373 -16.8839 7.71304 
8.05704 -9.8627 11.153 7.67926 -8.90849 11.3253 8.16558 -9.62195 11.6441 
11.8534 -16.7156 9.9581 8.99971 -12.6454 9.87326 9.15505 -12.3547 10.5859 
9.9555 -13.8744 10.3294 13.7141 -19.8212 8.30278 13.1583 -19.0271 8.45289 
11.5409 -14.8853 13.1676 12.164 -15.6994 13.7601 6.41702 -8.79446 7.02626 
12.1204 2.92599 27.7712 11.9875 3.23772 27.4351 12.1653 3.69774 27.7775 
6.19826 -9.06058 5.0769 6.55798 -9.76101 5.11429 6.37582 -9.50689 4.81179 
11.8246 4.18899 27.2044 11.7347 4.91455 27.2841 12.0293 4.3614 27.6169 
12.1943 4.23761 28.052 11.9466 2.00018 27.601 12.196 2.26438 28.0188 
6.22208 -9.32078 4.55285 6.17067 -9.3274 4.31404 5.98108 -8.84286 4.62205 
11.8014 3.40757 27.1012 11.5875 3.73973 26.8119 11.6774 1.11594 27.2563 
[...]
POINT_DATA 853
FIELD FieldData 3
Radius 1 853 float
1.43354 1.35576 1.29726 1.29168 1.37154 1.52965 1.66755 1.75762 1.79295 
1.82062 1.87047 1.92543 1.92277 1.86222 1.80867 1.86443 1.98009 2.02089 
1.82154 1.4209 1.02814 0.755059 0.719264 0.789361 0.839853 0.80137 0.721305 
0.792842 1.193 1.62473 1.88093 1.91535 1.87994 1.86564 1.77954 1.618 
1.47104 1.25765 0.999471 0.89284 0.956634 0.973037 0.86894 0.760302 0.74293 
0.816559 0.80473 0.708884 0.607647 0.582852 0.633243 0.730345 0.729252 0.716909 
0.778171 0.988176 1.21526 1.38716 1.48748 1.47679 1.96138 1.84884 2.13168 
2.00789 2.20688 2.19162 2.55658 2.45623 2.71755 2.69574 2.99717 2.925 
2.90647 2.7459 3.09669 2.86573 3.04149 3.04133 3.00798 2.75972 2.77793 
2.86869 2.92087 2.81652 2.65675 2.47671 2.15677 1.814 1.46438 1.31276 
1.15007 1.14883 1.2987 1.39386 1.28382 1.22833 1.35396 1.50672 1.793 
2.18475 2.56991 2.75225 2.90861 2.81182 2.84227 2.80627 2.75303 2.65314 
2.58442 2.47974 2.25896 2.02579 1.76859 1.6425 1.51051 1.62652 1.5552 
1.56195 1.18482 1.25038 1.14188 1.31333 1.17297 1.20763 1.03304 1.00132 
0.895134 0.906106 0.902067 1.00813 0.975981 0.979578 1.09224 1.19782 1.47331 
1.55353 1.77086 1.76697 1.97096 1.81412 1.23805 1.14716 1.46219 1.24694 
1.40032 1.76593 1.42319 1.61189 2.046 1.59212 2.38497 2.23215 1.82529 
1.67507 1.59315 2.61614 2.24886 1.86668 2.20409 1.50223 1.59557 3.28241 
2.9139 2.64822 4.02743 3.81671 1.99668 3.16108 2.40818 1.27031 1.81948 
1.8468 3.53362 3.84842 3.71712 3.64096 3.62257 1.99637 3.4824 4.07823 
3.46072 2.09014 2.98519 3.44914 1.78995 2.26278 2.32167 3.72923 3.40433 
2.9587 2.99638 2.89447 2.23266 2.13825 2.63398 3.38711 3.49752 3.58363 
3.95501 4.18531 2.93632 4.0721 4.28995 2.81322 2.56529 3.46278 3.85105 
3.51372 4.06793 2.54841 2.69332 3.13397 3.11852 3.33125 3.53393 2.61174 
2.73161 3.16975 4.2123 3.84035 3.79979 3.79653 3.32356 4.12443 4.2962 
2.42095 2.42149 2.45713 4.20159 2.43264 2.86155 2.56197 2.21823 2.74227 
2.45011 2.85958 2.45253 2.45582 2.02319 2.383 1.9194 2.11103 1.82795 
1.67394 2.7298 2.27408 2.26286 1.82193 2.29322 3.2169 3.1561 2.32145 
2.84641 3.28534 3.30299 1.82429 2.83149 3.25684 3.22426 3.20903 3.49009 
1.68837 1.48669 1.21563 2.58907 2.12811 2.41748 1.66838 1.68096 1.57347 
1.30977 1.63593 1.99627 1.8713 1.16102 0.873793 2.29343 1.96197 2.39664 
2.7373 3.26839 3.02593 2.05467 2.25633 2.316 2.56107 2.48701 2.44081 
2.27655 2.54153 2.37361 1.62451 2.67395 2.57678 2.16888 2.62592 2.73227 
2.84647 3.6496 3.19497 3.3014 4.00491 3.90786 3.8723 1.93104 2.43771 
2.4524 2.93558 3.25823 3.50173 2.40847 2.99817 2.40687 1.90026 2.43841 
2.38742 1.90554 3.56246 3.06419 3.08924 2.33765 2.30567 1.84163 2.37388 
2.27512 2.5213 2.59478 2.26266 2.82369 1.80467 2.37526 3.57034 3.42753 
2.99807 2.34746 2.51305 2.12249 3.04224 2.90778 2.88647 3.42285 4.30991 
4.30797 4.09306 3.04238 3.44174 2.83493 3.64314 3.63798 3.62078 2.49521 
3.01269 2.53377 2.95672 3.51814 3.28773 3.78183 1.73571 2.05541 2.04518 
2.60762 2.10224 2.13985 3.46279 3.38805 3.74452 3.17804 2.71435 3.17509 
3.98241 3.99985 4.02618 4.27109 2.28628 2.93143 4.0842 3.66015 1.64964 
0.959043 1.1609 0.960476 1.43099 1.82887 1.59276 1.23369 1.06418 1.01102 
0.750936 0.986041 0.711729 1.37837 1.26038 1.08725 1.32292 1.42599 1.10196 
1.21593 1.10145 0.82205 1.5144 1.34355 1.48041 1.32146 1.3862 1.22364 
1.35433 1.13723 0.833024 1.10014 1.04438 0.757513 1.04809 1.27389 1.63015 
1.5142 2.03974 2.12832 1.88894 1.63902 1.4342 1.5645 1.43644 1.41459 
0.719661 1.06034 1.13199 1.44599 1.31846 1.60544 1.38385 1.98653 1.77275 
1.86292 0.976118 1.58577 1.28377 1.61188 1.51304 1.70774 2.3109 2.17226 
1.7322 1.86693 2.0451 1.69174 2.39837 3.20039 3.59553 1.87237 2.40352 
2.39456 2.80431 2.13406 2.57315 2.35329 2.86783 3.14804 3.16662 2.21559 
1.69411 1.54811 1.35199 1.28314 1.20979 1.04958 1.01382 0.906177 1.14757 
1.03791 0.941717 1.37764 1.83615 4.275 4.26003 4.27469 0.891854 1.06673 
2.23172 2.02919 2.38557 2.08754 1.87174 2.07563 1.6679 1.73745 1.55851 
1.80313 1.41978 1.78256 2.36633 1.99551 2.60583 2.44829 1.89539 2.81223 
2.47514 1.92109 2.4316 1.34194 1.45379 2.68875 1.49511 1.3624 1.45498 
3.25497 3.34171 3.1206 1.21641 1.35961 1.39568 1.28863 1.20372 2.78346 
2.79732 2.62431 3.06398 3.57137 1.4549 1.24145 1.11256 1.48882 3.09449 
2.86512 2.5532 2.9374 2.3903 1.78073 3.58996 3.6199 3.70094 2.30197 
2.86228 2.25847 1.71925 2.6386 2.17754 2.23278 2.14743 2.19425 1.6024 
2.9206 2.90253 2.53004 1.45358 1.98276 2.01022 2.62376 2.74874 2.57695 
2.79605 2.39341 3.40849 3.17278 3.09373 1.3298 1.29784 1.69992 2.37195 
1.8673 1.21716 1.40069 0.924381 1.07944 1.83369 1.72417 2.13515 2.11348 
1.9433 1.54616 2.57186 2.45903 2.59695 2.78076 0.910319 1.79943 3.10399 
3.12214 1.25594 1.81349 1.31684 3.29341 1.78899 1.70716 1.2864 1.66225 
2.09263 1.64911 1.69875 1.31999 2.22138 1.65292 1.99584 1.81353 1.64915 
1.66829 1.89807 1.40111 1.602 2.01508 1.99636 1.45816 1.74128 2.7029 
2.68832 2.54107 2.42804 2.30286 2.09941 1.65859 1.48866 1.64293 2.10816 
1.90913 1.74926 1.86836 1.62252 2.1662 2.05212 1.5974 1.79797 1.59479 
1.44638 1.43892 1.6703 1.55034 1.30938 1.1109 1.34192 1.92058 1.91514 
1.81668 2.95433 3.21582 3.15584 1.93652 1.67727 1.93019 1.99499 1.85697 
2.34824 1.80939 1.61876 1.68212 1.51994 0.98224 1.31911 1.2112 1.57932 
1.19014 0.933755 1.25192 1.56173 1.35354 1.20913 1.0361 1.35952 2.29777 
2.3787 0.967076 0.984873 1.20991 1.47387 2.22174 2.1628 0.802807 1.94075 
1.19996 0.956219 1.01101 0.740208 1.09657 0.973256 1.23684 1.54419 0.770031 
1.01502 1.3352 1.20695 1.13117 1.03194 1.01429 1.71603 0.765641 0.989041 
0.915047 0.84674 0.650918 1.76195 1.4687 1.50838 0.822302 1.62452 2.511 
2.31824 1.1326 1.33783 1.31392 1.49432 1.1491 1.33239 1.01064 0.937672 
0.857838 1.11713 1.03419 0.889591 0.861768 0.852442 0.862358 0.992765 1.09892 
0.717815 0.738726 0.875443 0.734794 2.05672 1.12312 1.08183 0.779217 0.777106 
1.45113 0.583911 0.810766 0.723734 1.02798 0.892858 0.816961 0.953398 1.00342 
0.756772 0.776414 0.681109 1.37549 0.597353 1.86787 2.12107 1.67195 2.22605 
2.05358 2.04166 3.15375 3.3657 3.02451 3.05835 3.48853 2.61428 3.591 
3.15232 3.62191 3.84222 3.95824 3.34754 3.6063 2.3016 2.77454 3.11673 
4.1678 4.08878 4.10659 3.93041 4.01217 3.23639 3.59059 2.91192 1.98595 
3.93124 3.1302 3.5759 4.13456 4.13127 4.17937 2.19593 1.99949 1.85779 
2.72502 2.85709 1.94724 2.03245 2.55764 2.37754 2.48523 3.19373 3.92553 
4.1915 2.98164 3.06413 3.69827 3.86883 3.06842 2.92715 3.32114 3.10714 
2.31804 2.88084 2.93552 3.37628 3.08203 2.06355 2.18054 2.32015 2.42597 
2.23298 2.88334 3.48903 3.32132 3.78356 3.44602 3.68556 3.62923 4.06504 
3.86891 3.59329 3.95551 4.23789 2.77394 2.64348 3.83763 3.9334 3.62771 
3.71903 4.15634 4.25892 2.65532 2.69468 2.57896 2.47652 4.02601 3.98422 
3.86477 3.92519 3.27154 3.4479 4.01582 4.16568 3.98416 3.07176 2.9204 
2.67881 3.24846 3.17582 3.30244 3.51885 3.42688 3.74215 3.59967 3.70532 
2.54132 2.41928 2.74386 3.60695 4.28344 4.29808 2.58203 
Rho 1 853 float
0.201878 0.133725 -0.0668973 -0.171276 -0.0685167 -0.00427792 -0.161324 -0.405647 -0.350676 
-0.0210614 0.333819 0.449023 0.394122 0.324939 0.272583 0.374575 0.79989 1.17448 
1.14642 1.12722 1.18309 1.00176 0.627611 0.287684 -0.042012 -0.320653 -0.475224 
-0.469029 -0.350251 -0.438378 -0.767693 -0.980975 -0.765152 -0.539431 -0.496249 -0.245884 
0.0644841 0.0993518 0.00261365 -0.10091 -0.238218 -0.296718 -0.288209 -0.356009 -0.54527 
-0.786848 -0.852768 -0.864269 -0.945924 -1.06252 -1.04585 -0.858329 -0.727258 -0.667157 
-0.579583 -0.383498 -0.151719 -0.0336806 -0.00288889 0.11639 0.0337649 0.147877 0.10242 
0.0354122 -0.0690098 -0.104127 0.00472771 0.0294811 -0.0483216 -0.267025 -0.412107 -0.412455 
-0.149146 0.162719 0.350808 0.434838 0.383032 0.307919 0.318956 0.335233 0.348076 
0.533522 0.811477 1.07819 1.14867 0.957367 0.89281 0.950676 1.05305 0.858677 
0.726708 0.450646 0.177984 -0.0546147 -0.226802 -0.390982 -0.466757 -0.480664 -0.401611 
-0.372459 -0.560538 -0.861882 -0.937821 -0.766091 -0.478766 -0.375257 -0.467233 -0.329865 
-0.0274556 0.169048 0.128625 0.0390131 -0.0187447 -0.0546586 -0.154443 -0.188498 -0.21154 
-0.269567 -0.336058 -0.511376 -0.715022 -0.894895 -0.906575 -0.900243 -0.900267 -0.966783 
-1.0246 -1.00151 -0.929092 -0.769618 -0.716583 -0.664469 -0.598745 -0.513509 -0.420009 
-0.282891 -0.205012 -0.129541 -0.20475 -0.0519957 -0.62469 -0.773355 -0.529478 -0.846746 
-0.624179 -0.487221 -0.893656 -0.68417 -0.49487 -0.967476 -0.116504 -0.392946 -0.427812 
-0.806993 0.0631916 0.00613768 0.00999167 -0.818856 -0.13756 0.431476 -0.2308 0.072298 
0.0823041 0.0578234 0.303631 0.352792 0.170427 0.0436656 -0.484431 -0.141627 0.550345 
-0.345437 -0.172858 0.158189 -0.252558 -0.119212 -0.353523 -0.0323661 0.168237 0.178971 
0.790495 -0.841719 0.187868 -0.274443 0.0335732 0.359697 -0.34735 0.481286 -0.520527 
0.723477 -0.447435 0.0896235 -0.576045 -0.0698532 -0.0044962 -0.0513515 -0.255468 -0.0373724 
0.105099 -0.109512 0.166111 0.248608 0.041434 0.183067 0.0706002 0.656222 0.457647 
0.418843 0.416515 0.593199 0.148408 0.134224 1.02798 0.656381 0.0580324 -0.420841 
-0.258968 -0.690944 0.186015 -0.175651 -0.137328 0.0316249 0.0166628 0.15504 -0.057188 
0.0365696 -0.186248 -0.15741 0.141426 0.623444 0.684183 0.810381 0.177753 0.199443 
0.188243 0.937866 0.984302 1.13565 1.04263 0.446497 0.54101 0.157742 0.115908 
0.138953 0.33016 0.29093 0.294632 0.292635 0.315664 0.848702 0.98023 0.334666 
0.41363 0.424239 0.50049 0.290706 -0.397889 -0.291908 -0.270941 0.730944 0.721431 
1.07784 1.12361 1.16232 -0.432685 -0.504902 -0.465186 0.245009 0.0567218 0.202119 
1.14067 1.01743 0.899615 1.04635 1.08176 1.14279 1.1677 1.20274 1.19858 
1.16101 0.951673 1.08809 1.04993 1.07134 0.922525 1.06133 -0.383092 -0.406209 
-0.374344 0.786085 0.720879 1.11519 0.102843 0.0478321 0.0847177 0.393983 0.628416 
0.403738 0.403472 0.377094 0.363691 -0.0263821 -0.164043 -0.0309297 0.429884 0.434252 
0.39862 0.271855 0.159486 0.278278 0.447026 0.422287 0.333691 0.357649 0.360546 
0.417511 0.427926 0.0856854 0.087954 -0.042853 0.079236 0.237941 0.162717 0.062324 
0.0448728 -0.0226267 0.352857 -0.100069 0.025347 -0.203048 -0.272206 0.353066 0.395196 
0.403211 0.0447985 0.0174767 -0.0180115 0.161097 0.161554 0.185177 0.00154078 0.181662 
0.106317 0.24133 0.338103 0.327039 0.335606 0.251366 0.295429 0.351521 0.325269 
0.30389 0.099453 0.171515 0.161051 0.198163 0.183243 0.139635 0.11982 0.00744026 
-0.183526 -0.147054 -0.306081 -0.315163 -0.396391 -0.296943 -0.314177 -0.430656 -0.387407 
0.27305 0.0977962 -0.00876098 0.12957 -0.397392 -0.308363 0.144253 0.240085 0.0681513 
0.699047 0.584969 0.530522 -0.0948853 -0.0473481 -0.0972682 0.323493 0.222932 0.372304 
0.450694 0.855048 0.812773 -0.156633 -0.208122 -0.188528 0.451823 0.285762 0.958065 
0.804165 0.0782178 0.131356 -0.00185826 0.0456699 0.12815 0.623449 0.963742 -0.0467298 
-0.142403 -0.157075 -0.201189 -0.269525 -0.442021 -0.413773 -0.368018 -0.312502 -0.0634127 
-0.124075 -0.179139 -0.15265 -0.0240659 0.494301 0.678266 0.758472 -0.234764 -0.340755 
-0.496759 -0.485208 -0.496066 -0.482396 -0.480833 -0.45148 -0.431048 -0.860932 -0.929888 
-0.941892 -0.399247 -0.371885 -0.43266 -0.419701 -0.378744 -0.292614 -0.282133 -0.0558605 
-0.120653 -0.227218 -0.264802 -0.311255 -0.530085 -0.385341 -0.151747 -0.630978 -0.647843 
-0.795861 -0.613392 -0.518265 -0.48525 -0.496667 -0.888048 -0.787617 -0.674846 -0.432742 
-0.391591 -0.0839284 -0.567514 -0.555231 -0.596491 -0.893089 -0.865506 -0.968798 -0.930389 
-0.967421 -1.00432 0.115697 -0.529673 0.0218502 -0.0975271 0.00798952 -1.02058 -0.927231 
-0.501191 -0.388009 -0.438672 -0.378119 -0.405853 -0.341255 -0.871749 -0.749728 -0.803779 
-0.34755 -0.356783 -0.587616 -0.667242 -0.365565 -0.986801 -0.925704 -0.901039 -0.9459 
-0.963388 -0.920301 -0.840965 -0.607094 -0.574478 -0.715364 -0.63957 -0.71067 -0.749997 
-0.253633 -0.41944 -0.579342 -0.910519 -0.94598 -0.942164 -0.68312 -0.79943 -0.443585 
-0.566996 -0.473277 -0.408475 -0.302517 -0.946407 -0.911311 0.0477048 0.0234185 -0.322579 
-0.413077 -0.422386 -0.442682 -0.446327 -0.427889 -0.102053 -0.0968229 -0.189605 -0.338096 
-0.350062 -0.219529 -0.288041 -0.00800908 -0.0123187 -0.00504333 -0.0157971 -0.100926 -0.0579531 
0.0551206 0.0452964 0.0210333 -0.00962009 -0.00448337 0.0140817 0.018422 -0.159522 -0.0305344 
0.0308124 -0.0488 -0.027122 -0.102649 0.00444874 -0.08018 -0.0494176 -0.0378207 0.0129066 
0.00498851 -0.678039 -0.0140132 -0.0418245 -0.136771 -0.0888863 -0.0938548 -0.0119278 -0.0382653 
-0.0861353 -0.174214 0.0728757 0.0364624 -0.0049657 0.0873825 -0.176957 -0.108362 0.104318 
-0.236705 -0.245231 -0.151641 -0.145769 -0.329134 -0.091257 -0.143302 -0.140947 0.878205 
0.0834456 -0.012282 0.0721724 0.0309466 -0.100227 0.173105 0.125053 0.129203 0.186184 
0.154963 0.103742 0.196283 -0.198143 -0.0863576 -0.107701 0.168419 0.102455 0.151469 
0.133578 0.0776597 -0.0208608 -0.04021 0.0537225 0.0482369 0.0573494 -0.0136667 -0.301544 
-0.135667 -0.0860625 -0.172291 -0.0583747 -0.50553 -0.332016 -0.0907266 -0.165063 -0.0588013 
-0.0136836 -0.214072 -0.243385 -0.143144 -0.0793915 -0.251532 -0.305905 -0.511074 -0.329389 
-0.348534 0.132309 0.105813 0.142781 -0.267627 -0.937128 -0.874247 -0.700338 -0.657965 
0.0289063 0.249845 -0.427689 -0.349968 -0.357287 -0.283082 -0.265624 -0.269307 -0.580962 
-0.268104 -0.291896 -0.276543 -0.235874 -0.857003 -0.916134 -0.300743 -0.307014 -0.532814 
-0.363178 -0.410821 -0.338349 -0.403475 -0.882668 -0.657905 -0.742598 -0.308731 -0.157343 
-0.627232 -0.625638 -0.512891 -0.437687 -0.840576 -0.739702 -0.815251 -0.937983 -0.665339 
-0.861599 -0.917438 -0.907938 -0.891978 -0.871364 -0.872166 -0.610946 -0.854693 -0.869112 
-0.880939 -0.915436 -0.894186 -0.626239 -0.648588 -0.501935 -0.839789 -0.511783 -0.0291715 
-0.156097 -0.470898 -0.464175 -0.397772 -0.472707 -0.557374 -0.513206 -0.544692 -0.600144 
-0.501225 -0.640427 -0.634878 -0.64024 -0.6705 -0.696815 -0.729329 -0.683982 -0.675692 
-0.695364 -0.775492 -0.773671 -0.631731 -0.0203935 -0.698653 -0.76575 -1.02149 -1.04969 
-0.378066 -1.00827 -0.967746 -1.0638 -0.928619 -0.81908 -0.914372 -0.84666 -0.737703 
-1.04711 -0.997265 -0.97069 -0.761379 -1.07821 0.769431 -0.711226 -0.447015 0.669458 
0.685692 0.443304 0.0637892 0.0410857 -0.0188442 -0.0129642 -0.171792 0.158524 0.273223 
-0.527274 0.441673 0.436924 0.447287 -0.39767 -0.301784 0.00354382 0.0453478 -0.19028 
0.208024 0.114033 0.179704 -0.17434 -0.199713 0.61161 0.566084 -0.689532 -0.726922 
0.168769 0.129844 -0.166643 0.216139 0.370072 0.324695 0.118709 0.203033 -0.173605 
0.873995 1.00166 -0.010055 -0.218468 -0.0424774 0.0301808 0.203575 0.388355 -0.0752079 
-0.0140786 -0.807424 -0.842998 0.599061 0.498472 0.934969 1.09832 0.106576 -0.158771 
-0.128469 -0.314524 -0.106239 -0.0282334 0.0204183 -0.532006 -0.330987 -0.377609 0.47613 
-0.252434 0.00664288 -0.043505 -0.0281991 -0.257449 -0.392275 0.590867 -0.164706 -0.107076 
-0.0153256 0.0693612 0.0237633 0.143954 0.140074 0.107137 0.00668429 0.0571952 -0.211906 
-0.105137 -0.143813 0.229115 0.0765039 0.14212 -0.0393285 -0.187507 0.42195 0.358285 
0.243931 0.148648 0.421219 0.432074 0.389419 0.284489 0.264573 0.424764 0.141281 
-0.372712 0.868035 0.6948 -0.624999 -0.294281 0.732311 0.332108 0.510988 0.03218 
-0.32871 -0.266385 -0.0806038 -0.0322888 0.0497742 -0.0316597 -0.218202 
tcoords 2 853 float
-28.3805 16.2235 -28.0569 15.469 -27.738 14.6802 -27.4422 13.596 -27.1659 
12.2529 -26.815 10.794 -26.4437 9.41938 -26.1598 8.11617 -25.7762 6.56927 
-25.2543 4.87444 -24.5956 3.02715 -23.8588 0.994766 -23.3821 -1.18015 -23.0918 
-3.47684 -22.7723 -5.51556 -22.3288 -7.22319 -21.7367 -8.73801 -20.9014 -9.89757 
-19.6301 -10.6272 -18.1772 -11.0009 -16.8587 -11.1915 -15.6755 -11.0634 -14.8369 
-10.4019 -14.5508 -9.32807 -14.6265 -7.91299 -14.9124 -6.50665 -15.464 -5.39392 
-16.0934 -4.52015 -16.6983 -3.64183 -17.4069 -2.74303 -18.3206 -1.84397 -19.6459 
-0.710133 -21.075 0.815013 -22.4413 2.43791 -23.7161 4.09276 -24.7121 5.85003 
-25.3497 7.65376 -25.6627 9.32186 -25.9538 10.6594 -26.4031 11.7965 -26.9399 
12.8767 -27.4081 13.8669 -27.7574 14.6272 -28.0788 15.4158 -28.3153 16.2302 
-28.4136 16.9889 -28.5072 17.853 -28.6436 18.6115 -28.8299 19.129 -29.0109 
19.3648 -29.2311 19.4233 -29.4864 19.3176 -29.771 19.1923 -29.918 19.0076 
-29.8375 18.7199 -29.5667 18.2459 -29.2838 17.7893 -29.051 17.3866 -28.8756 
17.0833 -28.676 16.8218 -28.3588 16.2503 -28.1936 15.9995 -27.9328 15.2154 
-27.7578 14.9379 -27.5032 14.1263 -27.3284 13.4802 -27.1316 12.4799 -26.9209 
11.637 -26.662 10.5496 -26.4347 9.68811 -26.3155 8.85282 -26.0914 7.85627 
-25.6779 6.33555 -25.2 5.0429 -24.8008 3.73951 -24.2104 2.42054 -23.7268 
0.634747 -23.3703 -1.10684 -23.0751 -2.66053 -22.8532 -3.93695 -22.4559 -5.40717 
-22.0674 -6.53453 -21.5173 -7.57812 -21.0608 -8.45653 -20.1711 -9.25508 -19.3036 
-9.59508 -18.3297 -10.0007 -17.39 -10.1045 -16.5069 -10.2855 -15.9424 -10.0613 
-15.3643 -9.89599 -15.0302 -9.31088 -14.9791 -8.46887 -15.0229 -7.60603 -15.0428 
-6.7451 -15.2242 -6.04292 -15.5918 -5.49574 -15.8259 -5.04552 -16.2031 -4.52656 
-16.5869 -4.07292 -17.3454 -3.43727 -18.3714 -2.84344 -19.4014 -1.94423 -20.3686 
-0.848426 -21.5932 0.675284 -22.4483 1.6213 -23.6967 3.27814 -24.41 4.40881 
-25.2351 6.19113 -25.6307 7.35526 -25.9464 9.14018 -26.0443 9.98258 -26.3527 
11.1638 -26.5816 11.7683 -27.0436 12.8543 -27.2796 13.3835 -27.5862 14.1288 
-27.7462 14.4703 -28.0564 15.2236 -28.1813 15.6137 -28.3744 16.3002 -28.3972 
16.5766 -28.5744 17.3375 -28.6241 17.7635 -28.7905 18.4098 -28.8694 18.6043 
-29.0339 18.878 -29.132 18.9719 -29.2874 19.0571 -29.3612 18.9351 -29.5215 
18.9592 -29.6209 18.9056 -29.5705 18.6888 -29.4807 18.4936 -29.2165 17.9997 
-29.1166 17.7892 -28.8948 17.3321 -28.8442 17.1904 -28.6395 16.7187 -28.5954 
16.7425 -29.2813 18.563 -29.2041 18.6145 -29.1417 18.1029 -28.9866 18.2685 
-29.0027 18.1456 -28.8228 17.3726 -28.7335 17.6289 -28.7641 17.5269 -28.58 
16.6992 -28.5022 16.7502 -28.0779 15.5143 -28.3594 16.1565 -28.0303 15.0587 
-28.2948 15.8906 -15.4632 -7.9477 -26.808 11.6268 -27.2887 13.1492 -28.5049 
16.7115 -27.6754 14.1464 -15.6268 -8.98248 -15.4395 -6.86649 -27.1201 12.1466 
-27.3999 13.5939 -27.7617 14.627 -24.62 3.24762 -22.7669 -2.34574 -25.689 
8.36402 -26.4005 9.49866 -23.0981 2.77824 -26.7407 12.2682 -16.551 -9.19578 
-15.928 -6.3619 -26.804 10.5762 -25.6186 5.9574 -23.9927 2.70799 -22.0762 
0.0276708 -26.4063 9.02407 -26.9286 12.3902 -25.7391 6.42623 -23.7818 0.70588 
-20.7867 -6.70124 -28.3071 15.9886 -26.0225 8.10566 -23.039 1.63512 -15.9685 
-8.10452 -17.5631 -9.04552 -16.6104 -5.98456 -21.9459 -4.425 -19.9768 -2.70574 
-19.3261 -8.33302 -18.0312 -4.88381 -27.1613 12.4941 -28.1552 15.4838 -16.6847 
-7.89107 -26.5172 10.6786 -26.894 10.7932 -21.0601 -1.08569 -24.9793 4.69335 
-26.1941 7.58254 -23.3173 0.515987 -27.3907 13.2625 -21.6498 -2.27969 -24.5134 
2.96183 -27.6106 13.9591 -27.7855 14.3683 -21.5129 -6.01781 -21.0811 -4.47574 
-22.4907 -3.74532 -22.2835 -2.45172 -18.549 -9.1594 -18.1115 -8.20618 -18.7938 
-6.72167 -20.3267 -8.05857 -19.8735 -7.0002 -19.783 -4.93721 -16.9835 -4.97179 
-17.5113 -6.55429 -18.9672 -3.52324 -25.5035 5.1714 -26.1423 7.98157 -26.6022 
9.53829 -20.7201 -3.08907 -27.1124 11.7333 -23.1895 -0.731333 -23.7921 1.16459 
-27.5518 13.7109 -27.9426 14.8865 -17.2736 -7.69495 -22.5658 -0.703438 -21.9538 
-7.60169 -21.7925 -7.18851 -21.649 -8.06777 -25.6597 7.87066 -25.815 7.64496 
-25.8396 8.25727 -21.3286 -8.01816 -21.4003 -8.67977 -21.0298 -9.15779 -21.3585 
-9.37847 -22.2138 -6.94282 -22.0555 -8.00184 -25.8137 8.77153 -25.7977 9.22031 
-25.6544 8.73954 -22.6719 -4.70755 -22.6203 -5.55584 -22.8196 -4.70201 -22.9442 
-4.56139 -22.9723 -3.86191 -21.2194 -7.23055 -20.9664 -7.68411 -22.4181 -6.30097 
-22.2671 -5.95995 -22.2388 -5.01076 -22.0299 -5.54746 -22.5678 -6.39681 -22.0893 
1.21829 -21.8301 0.392055 -22.2819 0.939495 -21.5194 -6.8164 -21.1987 -6.29777 
-17.7463 -10.5534 -17.1914 -10.6325 -17.4988 -11.1251 -22.7723 2.216 -22.8665 