# vtk DataFile Version 3.0
vtk output
ASCII
DATASET POLYDATA
POINTS 853 float
24.1584 10.6005 14.8287 23.9293 9.16878 15.2509 23.6296 7.64557 15.6452 
23.3054 6.13585 15.9438 22.9997 4.67071 16.2292 22.5454 3.12459 16.5876 
22.0526 1.54274 16.5605 21.5875 -0.0488626 16.0973 21.034 -1.61498 15.6507 
20.595 -3.04871 15.1334 20.3047 -4.64295 14.23 20.0945 -6.54955 13.0395 
19.9682 -8.69899 11.8467 19.8697 -10.8083 10.7115 19.6246 -12.4372 9.50431 
19.2808 -13.5707 8.00727 18.8836 -14.4646 6.33354 18.2956 -15.2427 4.72387 
17.2946 -15.5889 2.94984 15.996 -15.4602 1.06698 14.697 -15.0381 -0.560536 
13.4989 -14.2085 -1.79723 12.7828 -12.9739 -2.82345 12.7697 -11.6425 -3.60985 
13.0624 -10.099 -4.23312 13.3516 -8.52972 -4.72856 13.8847 -7.45495 -4.56608 
14.5724 -6.82978 -3.82048 15.2487 -6.25224 -2.84265 15.9317 -5.75187 -1.64339 
16.7235 -5.42182 -0.271855 17.8947 -4.91487 0.960537 19.1932 -3.74074 1.72903 
20.5 -2.21302 2.26186 21.7588 -0.818711 2.83957 22.916 0.589705 3.34258 
23.9595 2.12101 3.65634 24.7269 3.48858 3.90647 25.1494 4.69938 3.9554 
25.4185 6.16556 3.63066 25.6429 7.76026 3.32678 25.8782 9.09644 3.37741 
26.0205 10.265 3.6177 26.0206 11.4594 4.16844 25.8203 12.4253 5.15567 
25.4536 13.1385 6.32826 25.2173 13.9158 7.23403 25.1731 14.6917 7.7672 
25.2056 15.2372 8.24687 25.2154 15.4327 8.86698 25.2989 15.4401 9.57777 
25.4751 15.3575 10.261 25.6673 15.2894 10.9446 25.725 15.0505 11.501 
25.5974 14.6583 11.8875 25.3597 14.0976 12.0678 25.0973 13.5231 12.3257 
24.8367 12.8986 12.7545 24.6291 12.2839 13.3813 24.4074 11.6407 14.2036 
24.3314 11.0498 13.4628 24.2025 10.3359 14.0689 24.0807 9.15649 13.9454 
23.8556 8.34743 14.5366 23.6491 7.11198 14.5801 23.4171 6.17599 14.9912 
23.3321 5.23592 14.6924 22.9655 4.25708 15.3178 22.6744 3.04307 15.1726 
22.2265 1.86686 15.3489 22.053 0.827289 14.6552 21.5981 -0.305473 14.5603 
21.0967 -1.6866 14.2362 20.7063 -2.73322 14.0811 20.5378 -3.92486 13.1561 
20.2785 -5.09191 12.731 20.1336 -6.82549 11.5265 20.0629 -8.43177 10.5327 
19.979 -9.69682 9.63116 19.837 -10.7575 9.14913 19.5279 -11.7566 7.9323 
19.2381 -12.3444 6.69806 18.8555 -12.9446 5.42333 18.4992 -13.6497 4.6064 
17.8209 -14.1954 3.28461 17.1295 -14.2866 2.20848 16.2937 -14.4186 0.955503 
15.3444 -14.1007 -0.124569 14.4083 -13.8002 -1.19384 13.8583 -13.1966 -1.7096 
13.2996 -12.6338 -2.45693 13.102 -11.815 -2.89048 13.2692 -10.9402 -3.15876 
13.4207 -10.0444 -3.38341 13.4219 -8.99827 -3.86939 13.5595 -8.25929 -3.96891 
13.9283 -7.89992 -3.44942 14.1857 -7.60498 -3.00427 14.5879 -7.27388 -2.31472 
15.0182 -7.0565 -1.5889 15.7121 -6.82863 -0.47628 16.6644 -6.73404 0.494984 
17.5624 -6.26989 1.54545 18.4511 -5.41586 2.01103 19.555 -4.05699 2.66988 
20.3395 -3.18253 3.01246 21.4096 -1.93262 3.78422 22.1179 -1.13317 4.1457 
23.1086 0.343397 4.59968 23.8043 1.36257 4.74658 24.6053 2.92154 5.02795 
24.9266 3.71613 5.00762 25.281 5.07278 4.86787 25.4011 6.02626 4.57717 
25.5895 7.62164 4.29569 25.6378 8.29492 4.45539 25.7763 9.26726 4.6036 
25.7905 9.90594 4.7599 26.0094 11.0038 4.65094 25.7726 11.613 5.43669 
25.5961 12.4041 6.20494 25.3559 12.6531 6.95264 25.3221 13.361 7.43876 
25.1982 13.7798 7.94772 25.2145 14.4539 8.31701 25.1664 14.6405 8.71453 
25.2131 14.8741 9.10753 25.2278 14.9226 9.51116 25.3055 14.9998 9.98703 
25.3481 14.8803 10.3451 25.45 14.9812 10.7377 25.4918 14.9419 11.1065 
25.4177 14.6484 11.3498 25.3272 14.4137 11.5446 25.138 13.882 11.45 
25.0343 13.6414 11.6822 24.8525 13.0699 11.791 24.77 12.7329 12.2324 
24.6175 12.1118 12.3342 24.4938 11.8652 13.0813 25.2525 14.4742 10.6363 
25.256 14.4776 10.0512 25.1688 13.9935 10.7459 25.1902 14.1796 9.41992 
25.1318 13.9959 10.0177 24.9794 13.2765 10.6464 25.1752 13.6263 8.73528 
25.051 13.4479 9.65175 24.8357 12.463 10.7881 25.2304 12.7713 8.04402 
24.5424 10.2107 11.8397 24.6909 11.5373 11.2677 25.5967 10.5734 6.48645 
25.4159 11.8256 7.20776 13.7768 -10.6938 -2.43647 25.1992 5.48221 6.55158 
25.4623 7.70207 6.17906 24.9969 12.6928 9.26784 25.42 9.08419 6.60008 
13.7543 -11.8461 -2.1556 13.7788 -9.46117 -2.89341 23.9444 5.34146 12.2636 
24.0716 6.90949 12.5789 24.4146 8.50046 12.04 20.6604 -4.31331 11.0408 
19.9049 -8.73676 7.98347 24.361 2.48775 4.3724 24.3226 2.64301 7.02443 
21.0156 -2.0613 2.9911 25.5072 6.85877 3.91536 14.6533 -12.6217 -1.11309 
14.2475 -9.24414 -2.04187 23.3211 3.14389 12.5073 21.3639 -1.87685 12.0869 
21.0785 -3.36877 5.70247 19.8182 -4.96948 3.94323 22.4063 1.06955 12.807 
25.4546 6.8454 5.26317 22.9747 -0.298469 6.52822 20.233 -6.53764 9.54634 
18.4037 -11.5454 4.047 25.0119 11.8536 9.03176 23.9587 1.57575 5.94888 
20.5941 -3.65261 4.35628 14.2238 -11.1822 -1.60408 15.6728 -12.932 0.18538 
14.9352 -9.14902 -0.968094 19.3452 -10.0089 6.14344 17.9992 -7.21393 2.52337 
17.1983 -12.7361 2.11168 16.2263 -8.61893 0.742455 25.097 6.54253 7.96214 
25.0998 10.9403 8.95956 14.9251 -11.2753 -0.701535 25.0071 4.17377 6.28234 
24.5444 3.88195 8.7336 18.9883 -5.81967 3.14266 21.9825 -1.82539 6.1626 
22.8664 0.115044 9.01827 20.3407 -5.60064 6.46084 24.8982 7.26704 9.23277 
19.3294 -7.38142 4.70851 20.9188 -4.12609 8.22171 24.8346 7.93099 9.99879 
25.1273 8.73043 8.96919 18.9621 -11.2665 5.29207 18.7776 -9.36565 4.35161 
19.6993 -9.94514 7.62412 19.6864 -8.18634 6.43971 16.5422 -13.4511 1.24428 
16.1987 -12.0996 0.861272 16.7914 -10.7114 1.65502 17.9888 -12.8115 3.37326 
17.6727 -11.4185 2.81131 17.7014 -9.30527 2.74559 15.3054 -8.25626 -0.475436 
15.7268 -10.0647 0.219481 17.111 -7.68308 1.55856 21.7742 -2.26646 9.06369 
22.053 0.0317601 11.9983 23.3416 1.98313 10.1898 18.5994 -7.77313 3.54132 
24.6656 5.15181 9.58013 20.0668 -7.42032 8.24974 20.4269 -5.57929 7.73877 
25.3619 8.24177 7.12671 25.1071 9.69769 9.02949 15.4959 -11.2333 -0.0247725 
19.944 -6.38211 5.85974 19.0879 -13.4113 6.61078 19.0427 -12.7537 6.03355 
18.8932 -13.6112 5.84089 24.1046 1.96402 4.50892 23.8741 1.40195 5.28387 
24.2293 2.12043 4.98647 18.7044 -13.3057 5.07442 18.7008 -14.1214 5.38149 
18.4338 -14.4605 4.71241 18.624 -14.8913 5.51982 19.2646 -13.0385 7.34763 
19.0937 -14.0373 7.18633 24.5026 2.73292 4.66403 24.6998 3.20826 4.46241 
24.5319 2.9289 4.11751 19.6942 -11.3219 8.60819 19.5727 -12.2214 8.72736 
19.7352 -11.6152 9.39464 19.767 -11.707 10.1326 19.8565 -10.9624 9.91733 
18.6843 -12.364 4.78375 18.4784 -12.7133 4.35241 19.4135 -12.6856 8.0325 
19.385 -12.0324 7.30034 19.4574 -11.0014 7.09403 19.2989 -11.2715 6.50008 
19.4588 -13.0474 8.79045 20.0131 -3.5486 2.8658 19.6983 -4.43795 3.23802 
20.0935 -3.9586 3.44045 18.9089 -12.1207 5.36097 18.7322 -11.3506 4.70495 
15.6443 -14.7841 0.354391 15.0736 -14.5882 -0.30733 15.3387 -15.2902 0.214649 
20.6775 -2.5942 2.9729 20.8672 -2.03007 2.62898 20.4039 -2.73132 2.6239 
14.0684 -11.6108 -1.77584 13.9711 -10.9241 -2.0405 13.7852 -11.2187 -2.24661 
14.5135 -14.3522 -0.95571 14.8358 -13.9103 -0.735523 15.8292 -14.2759 0.403985 
16.1901 -14.9331 1.01523 14.0188 -14.0559 -1.4609 14.0889 -14.692 -1.2379 
17.6447 -14.919 3.20606 17.8648 -15.4858 3.87707 18.0669 -14.7466 3.94653 
18.1941 -13.996 3.98327 18.1839 -12.2973 3.70655 18.2434 -13.1835 3.92368 
16.7449 -14.9996 1.79525 17.2091 -14.8411 2.46812 16.775 -14.4604 1.6806 
17.457 -14.283 2.70236 15.1134 -8.63835 -0.734357 15.1129 -7.69055 -0.99041 
14.882 -7.94123 -1.32986 16.8331 -13.86 1.68775 16.4209 -13.9171 1.07466 
16.646 -15.5535 1.98116 24.5189 2.76416 5.80015 24.7302 3.2636 5.82784 
24.7535 3.25502 5.04692 16.395 -12.8675 1.0599 16.8253 -13.1573 1.62223 
16.6793 -12.3785 1.44854 19.8115 -9.36594 7.84907 19.7775 -10.3679 8.34507 
19.887 -9.81869 8.67979 22.4232 0.0927057 10.6503 22.6746 0.951063 10.9848 
23.1468 1.14309 9.54646 20.0245 -7.60794 12.4339 20.0945 -6.74344 12.3136 
20.0418 -7.73336 11.7437 20.6323 -3.28658 13.6362 20.9413 -2.33269 13.3909 
20.8402 -3.03261 12.7496 20.176 -5.74113 12.9176 20.2158 -5.80763 12.1523 
19.9797 -9.55615 10.7466 19.9195 -9.77207 11.2862 20.0141 -8.64415 11.2444 
20.273 -4.91976 13.431 20.1854 -5.56678 13.6376 22.4768 -1.07826 6.43055 
23.0456 -0.0269571 5.47768 22.5709 -0.703679 5.293 20.627 -2.87951 14.6188 
20.4935 -3.55513 14.256 20.432 -3.79387 14.7589 24.1879 8.90358 13.1852 
24.2819 9.61029 13.052 24.5027 9.35125 11.8485 20.406 -4.20414 13.7094 
20.7955 -2.32371 14.8454 20.8817 -2.21468 14.1534 20.7981 -2.3375 15.4147 
21.0115 -1.69197 15.0447 20.6136 -3.94985 12.2893 20.393 -4.82202 12.0787 
20.3892 -4.50901 12.9529 24.0145 8.35161 13.6807 23.9746 7.74337 13.4924 
23.7735 7.79438 14.493 24.5002 7.03379 10.9044 24.54 7.56259 11.0774 
24.844 7.60783 9.67561 21.245 -1.60589 13.2407 20.8064 -4.31737 9.56788 
20.5149 -5.34457 9.00648 20.4174 -5.5357 10.1829 20.0864 -7.70196 11.0023 
19.9554 -9.29139 8.88075 19.9245 -10.2423 9.49182 20.1077 -7.49857 10.0522 
20.1857 -6.73757 10.6142 20.3137 -5.66817 11.2789 19.9447 -10.216 10.1861 
20.0183 -9.18762 10.0449 23.5178 0.927605 4.69745 23.4723 0.642656 5.47384 
23.521 0.88334 7.26578 23.4767 0.627151 6.34661 22.9292 -0.25396 7.70791 
24.2478 2.3982 4.00744 23.9009 1.72386 4.18514 23.5513 1.2459 4.04555 
22.6131 -0.406338 4.3855 23.0783 0.540886 3.89449 22.5547 -0.227047 3.66332 
21.7744 -0.167564 13.3638 21.99 0.363283 13.6394 22.2687 0.652805 12.3529 
21.6364 -2.12855 4.83565 21.7085 -1.61926 3.95128 21.3026 -2.49765 4.52278 
21.0371 -3.04426 11.5433 21.8829 -2.15522 7.55639 21.418 -2.97138 7.2107 
21.3138 -3.22629 8.67121 21.2647 -0.96113 15.2472 21.3471 -0.981661 14.365 
20.1332 -7.09296 8.96161 20.0604 -8.05703 9.51193 24.8694 3.61894 4.42404 
13.0421 -12.8033 -2.63116 13.1876 -12.189 -2.67809 12.9126 -12.2809 -2.94271 
25.4507 6.43665 4.1912 25.4286 6.3708 4.87874 25.496 6.85592 4.42581 
13.1785 -11.4126 -3.00604 12.9982 -11.1714 -3.46598 12.9109 -11.7404 -3.21839 
12.7079 -12.3246 -3.24908 13.3134 -13.3121 -2.2164 13.0345 -13.598 -2.32998 
25.5584 7.27377 4.03655 25.6151 7.67688 3.79977 25.5617 7.19213 3.61723 
13.3738 -11.7475 -2.61109 13.4878 -11.3193 -2.63974 13.6828 -13.6186 -1.79297 
[...]
POINT_DATA 853
FIELD FieldData 3
Radius 1 853 float
1.27269 1.23549 1.29968 1.37887 1.44448 1.52271 1.60149 1.66938 1.78595 
1.96927 2.20333 2.34256 2.22988 1.93 1.72357 1.74021 1.8498 1.92654 
1.85276 1.48421 1.01215 0.620956 0.480597 0.463988 0.475906 0.5478 0.674444 
0.916991 1.32202 1.81595 2.32644 2.62142 2.43657 2.08618 1.84051 1.59478 
1.34906 1.21447 1.0734 0.872545 0.818747 0.903243 0.896487 0.820227 0.804679 
0.861891 0.837301 0.708274 0.586024 0.571922 0.650925 0.740397 0.749608 0.777725 
0.875435 1.05892 1.23821 1.36737 1.41808 1.35971 1.95447 1.85467 2.06451 
1.92304 2.08745 2.05744 2.31586 2.21147 2.4373 2.44376 2.72746 2.73716 
2.85231 2.85894 3.23428 3.15685 3.2966 3.22248 3.15236 2.88363 2.93212 
3.1402 3.26981 3.08502 2.91967 2.752 2.32209 1.94933 1.42102 1.26385 
0.961188 0.905425 1.00396 1.09538 1.01053 1.06971 1.41213 1.6614 2.02657 
2.43459 3.00698 3.48431 3.74295 3.56446 3.23205 3.01912 2.8929 2.77185 
2.49218 2.2825 2.09567 1.96512 1.74741 1.5546 1.45819 1.5603 1.61223 
1.60911 1.27701 1.35156 1.26461 1.40762 1.27845 1.27363 1.08342 1.08125 
1.01628 1.03689 1.03211 1.12813 1.04283 1.02703 1.17349 1.26157 1.54011 
1.57162 1.76121 1.75404 1.93672 1.82912 1.35971 1.33115 1.56626 1.40001 
1.53079 1.78526 1.50008 1.66632 1.95765 1.62012 2.28906 2.11833 1.86574 
1.70638 1.51819 2.3621 2.09943 1.79371 2.08653 1.42019 1.50556 2.77762 
2.57295 2.46284 4.1182 4.18673 1.82368 2.75581 2.52727 1.17668 1.93496 
2.05157 2.94552 3.76399 3.96821 4.08479 3.13616 1.85948 3.2687 4.21282 
4.24898 1.91599 2.67612 3.72222 1.92198 2.60291 2.74377 4.38563 4.3996 
3.53839 3.79939 2.54395 2.05776 2.4906 2.39402 2.85418 4.17232 3.62859 
3.54041 4.58071 2.59103 4.81057 4.44569 2.54554 2.38805 4.15422 4.78336 
3.91993 4.6489 2.91727 3.2263 3.98834 3.69771 4.19099 4.61419 3.10217 
3.33759 4.13546 4.15711 3.4462 3.16451 4.73505 2.80745 4.3974 4.56224 
2.24616 2.25799 2.93842 4.7018 2.48493 3.16242 2.68231 2.03191 2.49413 
2.22776 3.16357 2.50431 2.52237 1.89882 2.41603 1.78912 1.94589 1.74575 
1.53915 2.8511 2.27439 2.27385 1.78992 2.35486 3.77521 3.67961 2.32171 
3.06183 3.68517 3.78482 1.71268 3.10599 3.65401 3.533 3.74969 4.24407 
1.77511 1.54657 1.24753 2.74164 2.27737 2.59938 1.72089 1.7067 1.50991 
1.27545 1.68269 2.1461 1.98175 1.05315 0.80281 2.41041 1.92243 2.48625 
2.99396 3.94243 3.48465 2.18395 2.4246 2.52948 2.8337 2.9343 2.8227 
2.63063 2.87172 2.63813 1.69117 2.4216 2.36101 2.05339 3.07449 3.19147 
3.42434 4.04377 3.45634 3.5513 3.5723 3.35417 3.31627 2.31381 2.82269 
2.76393 3.0476 3.27571 3.55953 2.78432 3.2839 2.55708 2.10007 2.70375 
2.73907 2.30846 3.47118 2.91559 3.05446 2.48374 2.53531 2.07991 2.27671 
2.226 2.37856 2.80874 2.31843 2.85427 1.86887 2.34412 3.68125 3.61075 
3.20586 2.23261 2.33176 2.01208 2.66203 2.59826 2.57497 3.33454 4.40472 
4.4591 4.20761 3.25471 3.67443 2.97004 3.79558 3.78868 3.79045 2.60367 
3.15407 2.36222 2.73245 3.12423 2.98624 3.48464 1.59275 1.90014 1.91296 
2.62322 2.06508 2.177 3.17206 3.05054 3.27507 3.34455 2.85717 3.366 
4.00173 3.98894 4.14236 4.3311 2.19923 2.79407 4.26802 3.83963 1.64824 
0.739635 0.942075 0.708362 1.33607 1.70702 1.48479 0.959066 0.727017 0.710365 
0.467721 0.839267 0.519598 1.2902 1.19152 0.992192 1.1276 1.23393 1.00119 
1.10694 0.761447 0.464722 1.31489 1.04251 1.28733 1.16978 1.32778 0.852231 
1.04753 0.781667 0.506691 0.797886 0.923849 0.6024 0.82284 1.05366 1.55491 
1.30369 2.03454 2.11667 1.89212 1.67785 1.38124 1.56599 1.22935 1.28449 
0.771842 1.06578 1.22811 1.5686 1.46081 1.80262 1.51615 1.85359 1.73062 
1.78641 1.11349 1.71607 1.2257 1.71305 1.50601 1.77819 2.20338 2.15963 
1.77453 1.84051 2.00332 1.75281 2.68895 3.72328 4.13682 2.26792 2.86156 
3.03755 3.38287 2.23434 2.68727 2.45254 3.68932 4.08455 4.05175 2.32613 
1.717 1.47104 1.47287 1.38297 1.30805 1.22267 1.17976 1.04025 1.27282 
1.18443 1.04444 1.27134 1.94911 4.53698 4.59381 4.63083 1.01952 1.23317 
2.51025 2.21194 2.69952 2.4239 2.14707 2.41458 1.67356 1.73132 1.61514 
1.94163 1.55761 2.08104 2.78332 2.2326 3.34969 3.16883 2.56966 3.6165 
3.17871 2.51819 3.01243 1.48056 1.56907 3.2804 1.59761 1.50328 1.55994 
4.24905 4.38398 4.047 1.29966 1.44387 1.46235 1.44987 1.37939 3.39709 
3.41868 3.09722 3.24678 3.8472 1.52531 1.34868 1.15091 1.52008 3.31769 
3.02279 2.39303 2.71933 2.26163 1.72208 2.96287 2.99976 3.05792 2.10826 
2.58742 2.12632 1.63627 2.39315 2.05075 2.11008 2.04529 1.97555 1.56201 
2.55714 2.54108 2.29111 1.48516 1.89237 1.82593 2.31968 2.43909 2.32749 
2.47585 2.18372 2.85192 2.73954 2.67318 1.26225 1.30602 1.63917 2.21825 
1.83536 1.37638 1.45157 0.978504 1.01879 1.76286 1.63855 1.99552 1.99171 
1.8547 1.49677 2.32405 2.23074 2.36674 2.51725 0.811428 1.7768 2.67711 
2.71928 1.1861 1.77758 1.41187 2.86856 1.7461 1.7162 1.34028 1.68504 
2.02246 1.60688 1.63804 1.2625 2.08351 1.53709 1.94806 1.77857 1.60806 
1.5609 1.89897 1.24395 1.6111 1.92569 1.92866 1.31445 1.70455 2.46055 
2.43099 2.35379 2.27312 2.15804 2.11395 1.5792 1.39721 1.63644 2.04202 
1.90902 1.74717 1.85035 1.61097 2.03785 1.98914 1.57779 1.77928 1.57962 
1.40557 1.43647 1.67729 1.54675 1.30948 1.15766 1.36815 1.87704 1.8832 
1.81629 2.58857 2.75159 2.72125 1.9014 1.68369 1.84132 1.88357 1.81468 
2.18281 1.96349 1.67439 1.71165 1.56552 0.865847 1.24887 1.28674 1.6582 
1.26754 0.915975 1.36214 1.60092 1.46472 1.30856 1.12182 1.46125 2.10479 
2.19986 1.0509 1.04535 1.31468 1.54547 2.02566 1.97942 0.854004 1.88426 
1.31664 1.06532 1.09738 0.802358 1.20846 1.08741 1.34866 1.58182 0.827032 
1.12944 1.40745 1.28813 1.19107 1.08784 1.10657 1.73988 0.781574 1.02658 
0.929987 0.858707 0.637216 1.79266 1.5614 1.60557 0.865099 1.69067 2.34188 
2.19538 1.19335 1.41221 1.37623 1.57642 1.22343 1.41816 1.07846 1.01036 
0.952749 1.19509 1.10095 0.956875 0.906411 0.885197 0.897792 1.04909 1.19222 
0.755944 0.749523 0.915217 0.817809 1.92078 1.25408 1.24238 0.821864 0.861875 
1.56612 0.56255 0.833522 0.800452 1.09124 0.976263 0.906293 1.08574 1.09281 
0.835823 0.857631 0.698383 1.47761 0.605375 2.00299 1.95326 1.85043 2.46515 
2.2728 2.29025 2.71257 2.8309 2.645 2.66008 3.28891 2.36842 3.80016 
3.87114 4.13331 4.36206 4.59669 2.96736 3.0458 2.10429 2.46224 3.20953 
4.0793 3.83031 3.89374 4.31098 4.3593 3.75325 4.29192 3.67962 1.90486 
3.78128 2.764 3.92173 4.73247 4.78859 4.73419 2.55681 2.25963 2.02551 
3.1283 3.28832 2.19329 2.32622 3.05964 2.81115 2.91581 3.49962 4.33701 
4.62897 3.84709 3.97883 4.53396 4.691 3.65819 3.35757 4.31436 3.98307 
2.74591 3.58416 3.66982 2.83961 2.66897 1.99016 2.09483 2.15515 2.76973 
2.62968 2.56103 2.90028 2.83178 3.18724 4.30852 4.60743 3.79387 4.28245 
3.61632 3.10591 4.44107 4.64642 2.53598 2.38728 4.54049 4.5274 4.60568 
4.55073 4.44828 4.28243 2.46232 2.47696 2.40014 2.30297 4.78766 4.84645 
4.82224 4.77362 4.16682 4.43266 4.50916 4.62675 4.31803 3.81285 3.60386 
3.23681 3.97805 3.92229 4.32049 4.57993 4.28624 4.76081 4.58186 4.73915 
3.04651 2.89076 3.34285 3.03978 4.48132 4.52446 3.11473 
Rho 1 853 float
-0.286418 -0.289556 -0.500061 -0.525602 -0.206935 0.0683703 -0.0130068 -0.259863 -0.14171 
0.305735 0.736087 0.80968 0.530907 0.0582577 -0.346946 -0.328943 0.13736 0.435819 
0.389325 0.552006 0.737165 0.461269 -0.062869 -0.309829 -0.330181 -0.397771 -0.475409 
-0.327591 0.173532 0.501611 0.391862 -0.0131689 -0.297256 -0.425305 -0.444916 -0.279581 
-0.135523 -0.0267919 0.112819 0.00324067 -0.36014 -0.387577 -0.0443333 0.173138 0.15037 
0.128373 0.333453 0.48855 0.414312 0.176736 0.0894843 0.101442 -0.0370506 -0.266518 
-0.445756 -0.460451 -0.446801 -0.528867 -0.611002 -0.476208 -0.384384 -0.225848 -0.21132 
-0.349675 -0.430608 -0.38029 -0.133121 0.031349 0.0521808 -0.137367 -0.324509 -0.311468 
0.0396483 0.4757 0.664557 0.796025 0.621114 0.312459 0.0844082 -0.137041 -0.254998 
-0.0315752 0.310267 0.471089 0.413929 0.16981 0.203178 0.455004 0.613366 0.354263 
0.09781 -0.196892 -0.276509 -0.293516 -0.346727 -0.43633 -0.479018 -0.424534 -0.174241 
0.231082 0.382971 0.205427 0.0186239 -0.115632 -0.227329 -0.320342 -0.414827 -0.315214 
-0.164768 -0.106162 -0.063712 0.0583442 0.14915 0.068491 -0.303977 -0.368284 -0.194908 
0.0185356 0.125043 0.104688 0.0418336 -0.0210384 0.145119 0.304313 0.416574 0.26558 
0.145421 0.106797 0.119309 0.135637 0.0613741 -0.105783 -0.28554 -0.424857 -0.402666 
-0.427596 -0.489257 -0.603114 -0.655076 -0.582238 0.00992098 0.130248 -0.212559 0.12367 
0.0482363 -0.370203 0.11469 -0.0831009 -0.56394 -0.100197 -0.23471 -0.52769 0.00370453 
-0.15064 -0.243398 0.12188 -0.151281 -0.302318 0.00583555 -0.0530587 -0.366733 0.0426848 
-0.138212 -0.13278 0.468199 0.0821213 -0.0993311 -0.0599551 -0.445968 -0.154242 0.120015 
-0.414427 -0.117244 0.250577 -0.222989 -0.0218541 -0.34324 -0.0495307 -0.0599576 0.268258 
0.518601 -0.436975 -0.0920922 -0.248033 -0.252153 -0.191833 -0.279461 0.172351 0.155813 
0.121102 0.134458 0.0600725 -0.276709 -0.375606 0.0945452 -0.00259369 0.116473 -0.109646 
-0.0605271 -0.1001 0.00739419 0.309586 0.0655312 0.0127618 0.0401531 0.340202 0.475138 
-0.00719547 0.198809 -0.132594 -0.338712 0.0152373 0.495644 0.385639 0.348157 0.0677421 
-0.264955 0.158327 0.109448 -0.184714 -0.199371 0.389224 0.0803592 0.0993722 -0.0216107 
-0.0831462 -0.0426683 -0.4946 0.0857102 -0.00736649 0.154286 0.216857 -0.106359 -0.0961433 
-0.0987111 0.395175 0.342053 0.440173 0.346377 -0.216799 -0.143608 -0.0846118 -0.0446293 
-0.0791003 -0.234619 -0.353732 -0.261184 -0.190495 -0.0965759 0.437332 0.507653 -0.340806 
-0.181695 -0.0688801 0.041422 -0.398298 -0.278237 -0.122509 -0.19702 0.319812 0.448663 
0.547058 0.664456 0.673399 -0.394615 -0.451157 -0.3867 -0.130204 -0.237515 -0.184152 
0.702298 0.573641 0.311926 0.415023 0.612248 0.680893 0.39215 0.435034 0.453366 
0.483848 0.531209 0.521355 0.323477 0.290517 0.158141 0.28805 -0.0835018 0.153133 
-0.0156874 0.0202025 -0.00714979 0.439516 -0.0569783 0.00558322 -0.0150936 -0.247861 -0.0702737 
-0.146532 0.0395102 -0.0918978 -0.0130668 -0.107377 -0.227289 -0.151522 0.700364 0.746327 
0.604701 0.587816 0.390192 0.504929 0.824455 0.738222 0.230398 0.318783 0.424871 
0.813344 0.832307 -0.0676083 -0.106154 -0.150341 0.412537 0.606234 0.537699 -0.194522 
-0.192431 -0.146429 0.72582 0.174601 0.281453 0.0633259 -0.0595986 0.604444 0.684014 
0.748118 -0.27329 -0.28872 -0.396939 -0.0151094 -0.0395792 0.00511395 0.147144 0.249151 
0.176018 0.374895 0.471002 0.0631132 -0.0116176 0.320089 0.452082 0.577516 0.0693953 
0.174233 -0.122124 -0.0919476 -0.0809101 -0.0766935 -0.0380337 -0.107135 -0.12185 -0.159982 
-0.234168 -0.225683 -0.309168 -0.262606 -0.352474 -0.304409 -0.290132 -0.383198 -0.342884 
0.398128 0.00334267 -0.0363676 0.111822 -0.234655 -0.173985 0.170378 0.204005 0.0235248 
0.0297558 -0.0668316 -0.1555 -0.0328746 0.0191704 -0.111296 -0.249118 -0.311008 -0.268136 
-0.226669 0.250425 0.172422 -0.244415 -0.352858 -0.25068 -0.132574 -0.197326 0.433365 
0.238817 -0.314598 -0.331368 -0.273663 -0.285136 -0.244227 0.0417105 0.497218 -0.309445 
-0.317694 -0.332962 -0.354601 -0.369955 -0.464938 -0.446701 -0.420061 -0.388865 -0.290668 
-0.310712 -0.571297 -0.457215 -0.500945 0.0569186 0.169674 0.297265 -0.353741 -0.413693 
-0.450844 -0.481535 -0.450086 -0.459375 -0.387178 -0.342109 -0.218716 -0.400375 -0.220044 
-0.302915 -0.0792865 0.0145566 -0.465806 -0.458703 -0.444822 -0.40933 -0.37919 -0.325155 
-0.325648 0.00144105 0.0206913 0.0482907 -0.349258 -0.064082 0.0620672 -0.366391 -0.296414 
-0.225612 -0.175018 -0.468778 -0.439652 -0.442712 -0.0468544 0.0532656 0.0175988 -0.391106 
-0.366863 -0.200212 -0.0950328 -0.247864 -0.143945 0.122053 0.13106 0.108402 0.183738 
0.144755 0.186943 -0.0891018 -0.467878 0.0360719 -0.0761011 -0.00702284 0.123371 0.122476 
0.482438 0.416737 0.357579 -0.194872 -0.334773 -0.362724 -0.107224 -0.185656 -0.0123203 
0.246268 0.383748 0.501345 0.43435 0.0345828 -0.00973466 -0.12435 -0.191206 0.088194 
0.126395 0.208721 0.29912 0.0338693 -0.0502918 0.319902 -0.00385335 0.0852723 0.0470452 
0.1946 0.223069 0.181376 0.213381 0.0562181 0.118174 0.101601 0.122332 0.0937963 
0.248862 0.240875 -0.367042 -0.268348 -0.063813 0.0478092 0.0583502 0.0959457 -0.287848 
-0.380082 -0.303369 -0.355017 -0.314004 -0.261118 -0.0623724 -0.112058 -0.190468 -0.19938 
-0.239429 -0.0739975 -0.136504 0.121947 0.147332 0.135983 0.0824515 0.0326408 0.0663375 
-0.037457 0.0375185 -0.0455422 -0.0213421 -0.051708 0.0516958 0.0742521 -0.0356972 -0.289938 
-0.149591 -0.257023 0.0199034 -0.0165333 0.053703 0.042514 0.11126 0.124727 0.0824628 
0.123523 0.101611 0.133837 0.106564 -0.0977218 -0.250929 -0.190625 -0.113498 -0.176212 
-0.274158 -0.359413 -0.0298613 0.0137267 -0.300409 -0.150938 -0.187628 -0.33759 -0.0342805 
-0.136055 -0.419418 -0.466954 -0.412568 -0.2576 -0.502341 -0.519782 -0.549585 0.436047 
-0.265974 -0.433464 -0.335931 -0.402585 -0.425769 -0.232334 -0.209792 -0.249079 -0.251609 
-0.324295 -0.279553 -0.251256 -0.308417 -0.241479 -0.165192 -0.372228 -0.430769 0.0063957 
-0.0343842 0.0142412 0.0286246 -0.0372209 -0.23262 -0.533704 -0.564167 -0.606301 -0.625281 
-0.631881 -0.641362 -0.640445 -0.615566 -0.591148 -0.634873 -0.507311 -0.552611 -0.5659 
-0.582728 -0.437835 -0.442966 -0.459406 -0.47715 -0.444138 -0.438798 -0.465301 -0.529557 
-0.454211 0.0281683 0.0717356 0.0318837 -0.601086 -0.19117 -0.311033 -0.455165 -0.346254 
-0.144749 -0.117247 -0.372897 -0.413893 -0.417684 -0.435175 -0.410234 -0.312137 -0.137996 
-0.15719 -0.246612 -0.0107565 -0.069323 0.122205 0.234882 0.0816778 0.0733915 -0.411 
-0.268854 0.167757 0.152243 0.133407 -0.0912582 -0.508925 -0.389578 0.107077 -0.0748448 
0.0643593 0.106332 0.143002 0.17818 0.0585845 0.0760817 -0.00192554 0.000151022 0.121553 
0.145175 0.216332 0.304421 0.382882 0.349334 0.247649 -0.234576 0.430546 0.434067 
0.472284 0.440472 0.484207 -0.0817559 -0.00699565 0.0503464 0.22428 -0.278435 0.018411 
0.0166715 -0.459642 -0.413284 -0.439905 -0.341983 -0.373595 -0.345172 -0.449683 -0.391791 
-0.47378 -0.0604264 -0.186247 -0.297701 -0.188694 -0.0786053 0.0191076 -0.0126809 0.0473752 
-0.148554 0.0500845 0.0878177 -0.372064 0.109918 0.105053 0.136393 0.240001 0.156392 
0.0885089 0.301586 0.349571 0.115514 0.35348 0.124315 0.116003 0.135702 0.107538 
0.0935489 0.0990655 0.0989037 -0.0307747 0.10625 0.305044 -0.522345 -0.426565 0.0309741 
0.148501 -0.0271837 0.0969469 0.0698614 0.0544164 0.0861572 -0.0867834 -0.0871197 0.124252 
-0.0197305 0.0461093 0.111931 0.199493 -0.34704 -0.278542 0.0657891 0.0934076 -0.218867 
0.195073 0.0536501 0.0460021 -0.158863 -0.171984 0.176987 0.263201 0.215124 -0.239528 
0.00238326 -0.0870233 -0.129298 0.197528 0.259235 0.187221 -0.310009 -0.183089 -0.36539 
0.129351 0.304771 -0.299108 -0.398469 -0.454141 -0.426605 -0.356592 -0.121347 -0.0715869 
-0.0327617 0.154164 0.0942987 0.425321 0.368518 0.368216 0.455449 0.207017 0.0484196 
-0.456039 -0.0551283 -0.159659 0.0455563 0.103292 -0.13118 -0.0358725 -0.146286 -0.187411 
-0.419641 0.0254033 0.0142038 -0.0395435 -0.282556 0.144854 0.504726 -0.171637 -0.0898494 
0.00475457 -0.103045 0.0489936 0.0656859 -0.0305033 -0.0492742 0.240582 0.159461 0.28981 
0.280746 -0.111284 0.265315 -0.00161795 0.0281763 -0.0574137 -0.140178 0.31254 0.41653 
0.456675 0.379889 0.223059 0.378116 0.137902 0.122247 0.0990611 0.0372251 -0.190036 
-0.102129 0.451644 0.274845 0.156366 0.2727 0.489879 0.477173 0.48437 0.398045 
-0.296205 -0.438798 -0.351342 -0.122462 0.0995294 0.00897463 -0.431032 
tcoords 2 853 float
-28.3805 16.2235 -28.0569 15.469 -27.738 14.6802 -27.4422 13.596 -27.1659 
12.2529 -26.815 10.794 -26.4437 9.41938 -26.1598 8.11617 -25.7762 6.56927 
-25.2543 4.87444 -24.5956 3.02715 -23.8588 0.994766 -23.3821 -1.18015 -23.0918 
-3.47684 -22.7723 -5.51556 -22.3288 -7.22319 -21.7367 -8.73801 -20.9014 -9.89757 
-19.6301 -10.6272 -18.1772 -11.0009 -16.8587 -11.1915 -15.6755 -11.0634 -14.8369 
-10.4019 -14.5508 -9.32807 -14.6265 -7.91299 -14.9124 -6.50665 -15.464 -5.39392 
-16.0934 -4.52015 -16.6983 -3.64183 -17.4069 -2.74303 -18.3206 -1.84397 -19.6459 
-0.710133 -21.075 0.815013 -22.4413 2.43791 -23.7161 4.09276 -24.7121 5.85003 
-25.3497 7.65376 -25.6627 9.32186 -25.9538 10.6594 -26.4031 11.7965 -26.9399 
12.8767 -27.4081 13.8669 -27.7574 14.6272 -28.0788 15.4158 -28.3153 16.2302 
-28.4136 16.9889 -28.5072 17.853 -28.6436 18.6115 -28.8299 19.129 -29.0109 
19.3648 -29.2311 19.4233 -29.4864 19.3176 -29.771 19.1923 -29.918 19.0076 
-29.8375 18.7199 -29.5667 18.2459 -29.2838 17.7893 -29.051 17.3866 -28.8756 
17.0833 -28.676 16.8218 -28.3588 16.2503 -28.1936 15.9995 -27.9328 15.2154 
-27.7578 14.9379 -27.5032 14.1263 -27.3284 13.4802 -27.1316 12.4799 -26.9209 
11.637 -26.662 10.5496 -26.4347 9.68811 -26.3155 8.85282 -26.0914 7.85627 
-25.6779 6.33555 -25.2 5.0429 -24.8008 3.73951 -24.2104 2.42054 -23.7268 
0.634747 -23.3703 -1.10684 -23.0751 -2.66053 -22.8532 -3.93695 -22.4559 -5.40717 
-22.0674 -6.53453 -21.5173 -7.57812 -21.0608 -8.45653 -20.1711 -9.25508 -19.3036 
-9.59508 -18.3297 -10.0007 -17.39 -10.1045 -16.5069 -10.2855 -15.9424 -10.0613 
-15.3643 -9.89599 -15.0302 -9.31088 -14.9791 -8.46887 -15.0229 -7.60603 -15.0428 
-6.7451 -15.2242 -6.04292 -15.5918 -5.49574 -15.8259 -5.04552 -16.2031 -4.52656 
-16.5869 -4.07292 -17.3454 -3.43727 -18.3714 -2.84344 -19.4014 -1.94423 -20.3686 
-0.848426 -21.5932 0.675284 -22.4483 1.6213 -23.6967 3.27814 -24.41 4.40881 
-25.2351 6.19113 -25.6307 7.35526 -25.9464 9.14018 -26.0443 9.98258 -26.3527 
11.1638 -26.5816 11.7683 -27.0436 12.8543 -27.2796 13.3835 -27.5862 14.1288 
-27.7462 14.4703 -28.0564 15.2236 -28.1813 15.6137 -28.3744 16.3002 -28.3972 
16.5766 -28.5744 17.3375 -28.6241 17.7635 -28.7905 18.4098 -28.8694 18.6043 
-29.0339 18.878 -29.132 18.9719 -29.2874 19.0571 -29.3612 18.9351 -29.5215 
18.9592 -29.6209 18.9056 -29.5705 18.6888 -29.4807 18.4936 -29.2165 17.9997 
-29.1166 17.7892 -28.8948 17.3321 -28.8442 17.1904 -28.6395 16.7187 -28.5954 
16.7425 -29.2813 18.563 -29.2041 18.6145 -29.1417 18.1029 -28.9866 18.2685 
-29.0027 18.1456 -28.8228 17.3726 -28.7335 17.6289 -28.7641 17.5269 -28.58 
16.6992 -28.5022 16.7502 -28.0779 15.5143 -28.3594 16.1565 -28.0303 15.0587 
-28.2948 15.8906 -15.4632 -7.9477 -26.808 11.6268 -27.2887 13.1492 -28.5049 
16.7115 -27.6754 14.1464 -15.6268 -8.98248 -15.4395 -6.86649 -27.1201 12.1466 
-27.3999 13.5939 -27.7617 14.627 -24.62 3.24762 -22.7669 -2.34574 -25.689 
8.36402 -26.4005 9.49866 -23.0981 2.77824 -26.7407 12.2682 -16.551 -9.19578 
-15.928 -6.3619 -26.804 10.5762 -25.6186 5.9574 -23.9927 2.70799 -22.0762 
0.0276708 -26.4063 9.02407 -26.9286 12.3902 -25.7391 6.42623 -23.7818 0.70588 
-20.7867 -6.70124 -28.3071 15.9886 -26.0225 8.10566 -23.039 1.63512 -15.9685 
-8.10452 -17.5631 -9.04552 -16.6104 -5.98456 -21.9459 -4.425 -19.9768 -2.70574 
-19.3261 -8.33302 -18.0312 -4.88381 -27.1613 12.4941 -28.1552 15.4838 -16.6847 
-7.89107 -26.5172 10.6786 -26.894 10.7932 -21.0601 -1.08569 -24.9793 4.69335 
-26.1941 7.58254 -23.3173 0.515987 -27.3907 13.2625 -21.6498 -2.27969 -24.5134 
2.96183 -27.6106 13.9591 -27.7855 14.3683 -21.5129 -6.01781 -21.0811 -4.47574 
-22.4907 -3.74532 -22.2835 -2.45172 -18.549 -9.1594 -18.1115 -8.20618 -18.7938 
-6.72167 -20.3267 -8.05857 -19.8735 -7.0002 -19.783 -4.93721 -16.9835 -4.97179 
-17.5113 -6.55429 -18.9672 -3.52324 -25.5035 5.1714 -26.1423 7.98157 -26.6022 
9.53829 -20.7201 -3.08907 -27.1124 11.7333 -23.1895 -0.731333 -23.7921 1.16459 
-27.5518 13.7109 -27.9426 14.8865 -17.2736 -7.69495 -22.5658 -0.703438 -21.9538 
-7.60169 -21.7925 -7.18851 -21.649 -8.06777 -25.6597 7.87066 -25.815 7.64496 
-25.8396 8.25727 -21.3286 -8.01816 -21.4003 -8.67977 -21.0298 -9.15779 -21.3585 
-9.37847 -22.2138 -6.94282 -22.0555 -8.00184 -25.8137 8.77153 -25.7977 9.22031 
-25.6544 8.73954 -22.6719 -4.70755 -22.6203 -5.55584 -22.8196 -4.70201 -22.9442 
-4.56139 -22.9723 -3.86191 -21.2194 -7.23055 -20.9664 -7.68411 -22.4181 -6.30097 
-22.2671 -5.95995 -22.2388 -5.01076 -22.0299 -5.54746 -22.5678 -6.39681 -22.0893 
1.21829 -21.8301 0.392055 -22.2819 0.939495 -21.5194 -6.8164 -21.1987 -6.29777 